/*--------------------------------*- C++ -*----------------------------------*\
| =========                 |                                                 |
| \\      /  F ield         | OpenFOAM: The Open Source CFD Toolbox           |
|  \\    /   O peration     | Version:  5.0                                   |
|   \\  /    A nd           | Web:      www.OpenFOAM.org                      |
|    \\/     M anipulation  |                                                 |
\*---------------------------------------------------------------------------*/
FoamFile
{
    version     2.0;
    format      ascii;
    class       volScalarField;
    location    "990";
    object      gradTy;
}
// * * * * * * * * * * * * * * * * * * * * * * * * * * * * * * * * * * * * * //

dimensions      [0 -1 0 1 0 0 0];

internalField   nonuniform List<scalar> 
5796
(
-1594167.61478
-2880.69551397
2886.32572622
715.826091557
-713.684652287
74094.0494183
-74377.9004904
-19834856.5726
17563502.037
21608540.4951
5066006.75862
18587527.1743
-3524189.74666
-1658048.1589
-3615.31081833
3614.79623525
3835652.28272
345585.734932
46.5031710579
-46.3565072777
-0.49164424636
0.492441791995
-9318832.73604
26589.3483311
-26810.3711021
-23511.3345807
-2075235.17081
-114544.476255
-57724.8495066
2175.8887746
-295.130879007
295.125011921
-3.32359881039
3.31420581574
-0.0746971346613
0.0748830302787
3129.34126472
-3125.15934117
-13542406.8377
-557619.945728
67.5926325994
-67.6265311094
13448449.8174
2265540.21437
-11069650.6361
-13640916.4377
419263.470855
1659671.17284
9.39172997285
-9.39559390564
18046.1792376
-18147.0710643
34231.6158687
-34309.6787185
667.78139306
-666.202072052
500.827971925
-501.005275008
-11680237.5343
23905.1296932
-227148.87939
1107305.31099
-424118.506596
52884.6715526
93486.9340605
5204473.00376
-15.1570424223
15.1088549694
5450725.9627
452000.372644
3700207.36164
-0.684600851972
0.686354146161
-32.8644285802
32.8852846115
-58467.6871453
-1852009.20966
-364939.449243
942.562752301
-942.366995534
335.693006318
-599334.358722
194.539202208
-194.413811825
46768.7989198
-48893.7801252
77.6671159602
-77.5374748778
2.13211080031
-2.13668654965
288561.523831
6.88365947757
-6.86247104099
3.22827395348
-3.22375139043
3984.68181662
-3988.40719995
97137.048469
-99529.7417343
375028.880535
1273948.31745
1644176.3727
-1057706.11317
3029663.89272
-918271.485701
1813502.65233
194499.232
1969188.91415
-0.90545193762
0.90587323803
-2985941.7235
2.09269024056
-2.09201357064
-18.1306630585
18.0634095882
-323941.10895
-1454783.51025
1179630.51399
-5293.58537404
5360.47534482
3.43506968425
-3.4326383512
1221851.68982
78643.4735454
1948053.60077
1864836.57638
-200059.865225
49.3952783854
-49.3514428885
-66.468735057
66.2039982921
-5459.59160064
5466.51323669
-0.545205969772
0.545293667173
100456.833823
12039.2125898
-26166.0147733
0.708368912847
-0.70745617754
-906634.314832
-636273.296234
-10733.2102594
-109239.393025
-16.1820833082
16.1262634138
-5671.80670318
-236.56123801
-1713.55579259
1715.3857891
1651963.47403
-1168235.62216
-25621345.1936
-10817463.569
-1476.73331007
1481.6820904
6965976.39995
1375334.9684
5316373.92379
-26479388.7259
9561558.88923
-110055.234638
109940.561477
252107.26123
-259205.381376
-7104698.47369
13185816.0711
-1593738.2588
4645595.66067
1974610.82074
462395.229626
-6796425.20015
-3764245.81268
-1049280.20952
7648637.88318
-1344.91699639
1349.34562847
-9070368.38867
7096125.34825
-2141247.00663
6455858.76247
1801732.53146
-2427543.04991
-4694520.7713
3777517.28269
-10951063.1007
-5308989.50129
-106094.946241
106088.225118
2.57821079277
-2.58923178579
5739961.00175
7206311.26775
-1179939.19309
7339315.28222
1941623.58329
4695566.65272
33007842.7934
-192.150361828
192.089138908
10922564.1156
1653681.65699
4004321.69894
-8537807.52981
-154069.267659
154078.614953
-2892268.06426
-496196.401858
-216.003535151
216.114020422
-44804.6634054
44780.5651516
9643816.84567
116.174815322
-116.252481919
1273943.16635
2699522.61865
-4119460.46997
-537059.590173
595955.650872
2234936.06227
-1831103.73043
359082.197666
-4469687.84915
-444657.077982
-10328394.0927
376.15534114
-375.577631467
-19416997.5715
194.989084978
-194.076984011
7557265.94613
7192852.15029
16703994.7693
-1521163.47208
-6231640.04116
-42856.5952074
42848.7892572
-2258459.67725
-3676654.32789
-86517.7717498
25035039.2997
4348044.57871
-1692898.44132
1126458.28444
-13312571.4547
-692208.905819
-1733355.54816
7399316.94221
-241.158177242
241.333160351
9757633.21298
-419.875675016
420.493852426
-33145.3859597
33130.8949621
3993.29514344
-3984.18727917
7163146.51585
-5140825.1435
6515950.82104
-5505681.49416
-4928323.0149
-3992379.45528
-777188.325555
3221139.30567
-5289111.59436
12269141.8958
-10303320.3519
3476970.02449
-13282180.9176
1461148.38347
7576831.02137
-13454679.8785
2.9402990946
-2.94665459642
6.06360121228
-6.06177454228
6116754.83075
-2.95378692781
2.95297287773
-200057.828343
5684861.67842
2173132.51762
-1677128.17182
1294243.88167
-1704133.69911
-4340270.30414
-9306560.42494
325768.419129
-358540.399061
-14084037.3707
750600.448992
-1618860.35001
17886712.1407
4032354.39231
192565.27032
-198365.820924
3670409.15507
-4259.83531615
4268.90530475
6274406.76799
-5634747.00707
-526045.1811
-4169.50884793
4178.92308298
9437908.32205
12855164.7402
-22830.9040652
22826.9127574
-239574.938391
-2587978.1969
6.4335899955
-6.41430491367
-294162.469197
5079629.10988
-8482437.03902
-273661.13458
275397.798196
1874985.54129
7362681.41809
1816.14933276
-1810.87614634
-2280.75085415
2287.14854659
6675383.51967
-1105354.19981
-57.8507229462
57.684359537
-5235885.24567
1266768.49803
-1447831.76937
-169497.101101
-2096631.76601
-8478684.33048
-469651.38846
464419.252826
1.37552432413
-1.36368171353
5589689.94331
11244649.7869
-60505.4113335
60511.7676111
493816.696717
6577795.58091
-7439394.28738
3951519.8675
-42968.5700736
42954.2278819
5447934.77571
8442424.7659
1240108.12394
6718968.64568
-3040790.89275
-4043997.27466
-2297163.42705
11036779.9733
-6333743.63078
1215923.6809
-22.8232884722
22.7819024533
6749171.97267
-1000363.81275
-7552.48564957
7563.68597947
-292018.62932
299202.545338
-4439123.16383
615.763412441
-614.00607379
980954.539393
4684661.41992
-4197352.21838
-1834762.67377
-698.559026698
700.219751987
1.91777911621
-1.90794272308
2885736.65075
9892053.4354
-2519285.55261
3786501.6755
-1468.15738493
1473.26184036
-3289889.09746
-523758.79334
-7017.34388274
6744.31094136
91.0461488342
-91.1478365587
1118923.46286
5317403.46356
-152521.74358
-2419250.52523
7537682.36165
-7066709.89764
7.09065595954
-7.09406910221
-2713093.07204
15.9704661099
-15.9844548666
9899218.15097
12370265.9495
9327120.94104
-3631.30702411
3639.39262862
-6.19508200777
6.19087696938
1597807.36259
7832160.75023
4356800.48151
-6461267.71234
6569661.79867
-133.739660051
133.544597376
8888818.5007
521.812486611
-519.853206527
47892.7183156
2051512.52848
-2255558.47883
-3470456.64264
-2563306.52482
-51740.7518334
51456.8024911
-2002356.65245
12434546.6723
-4576495.50803
-18137535.6646
-7525800.49906
5340630.30554
-4925208.45205
-572131.287248
-4283346.95259
182606.673072
9358538.59497
4986446.01618
4402520.86213
-7.33388818032
7.32014758393
-1628.11645823
1633.57632148
4399837.26223
6470887.29617
-7715635.61703
9736822.29022
-4680864.19237
-11749034.4238
4277574.97956
-177285.335835
-512407.659395
489278.732024
-5108922.20641
4554663.65271
-2358276.90393
-26204.1251424
26202.6023359
0.452348531166
-0.451314435058
-752830.66163
-8039832.94927
6.41864626165
-6.48891125152
319112.482672
8321386.13507
7926281.63396
-8136218.07284
5763444.38949
-3380056.27531
-7362430.48356
-7568626.66953
-5162289.97168
-5322772.05293
11577407.4141
6257109.79246
-3007.11096393
3011.64955016
-1755502.05475
-26198.3638279
26202.6101482
5950854.83483
-680.293095999
682.090491679
2102.03013764
-2095.70110445
-3621138.87965
6109979.80893
11605763.7112
-422797.602622
382863.714674
-7456236.92988
-19.0188356132
18.9882583217
-2070068.68975
13434430.5443
-15605490.98
-142306.19615
4202070.25273
4487737.26324
-1757713.78744
-44493.219133
44510.4633387
-1564548.04438
-24349.7019881
24346.9706347
1493654.64668
-1509632.24816
4104194.96746
1381629.20083
3151992.06851
-5867186.8556
571.426550412
-569.68736689
-20001.9551888
19947.4992163
-17902470.9746
-2629982.99711
3757196.5432
-65614.8530427
65627.5508774
2924039.20408
4593128.92399
-256786.844506
255442.786552
5.68820087619
-5.66645624014
-4280401.91438
3795654.54673
-108093.091982
-5935355.46018
11.5647435906
-11.5664710955
-3809354.74828
-6794345.63857
-1982.37473197
1988.5712503
-5972288.3159
302.701359719
-301.786402237
6032896.46399
-2524111.51818
34318498.8156
-798.417610547
800.491295268
4501547.84255
8115741.20641
6562337.24342
-3514374.03769
-8382829.82707
-10286361.9645
1586.22906288
-1581.26718096
-1259953.80831
10773790.3368
865650.194467
-15591348.7651
566540.054279
265320.228553
31129588.1424
6450602.25032
13794485.1021
1281954.33405
6373444.99122
5748508.80906
6302619.15341
8562089.50345
-440388.296518
-21.2921967396
21.2612187818
964575.424391
-707.456573891
709.041822186
-3204830.74028
-5754014.53462
2700882.15132
-35.9200211796
35.8445416762
1202965.22228
-3257854.1275
-27803848.1083
1675472.05401
1846968.93776
-2042580.6208
-4627433.4908
5419410.4997
5042089.45019
202.431173687
-201.619767956
-5991821.44415
-5035909.7568
-3127936.0334
-326937.066076
327165.870228
5882228.93607
-2149279.13226
12512193.4811
337823.466943
-1916627.80994
-545043.210152
4612822.0228
-85.9316816906
85.6931822899
11162080.5105
-10512468.7503
446863.755911
9201449.05705
5827360.2341
-4693242.08608
-5919132.7664
-42.6029126156
42.4814683351
598120.917755
-11197733.0736
-3026881.94003
5.23414287729
-5.23325104248
-169.233653086
169.150217907
-22134.7555496
22137.2978089
-6615821.50884
1637367.04964
1814917.46711
-3362.0494316
3371.55392397
-17694891.505
586470.760947
16051463.0535
-551993.234337
137.56202672
-137.538688395
13403079.1842
5248430.05251
7015.35698614
11274227.4571
-4271629.02467
-9540526.04405
1515425.12655
-311017.921478
293909.470281
-3795.39715172
3799.06266642
-2284.27744522
2291.80072556
1617196.91527
-6627524.38928
3382362.76715
-796.72613777
799.1019048
3776591.49996
3750969.18129
9.19820786041
-9.19382303091
-15932746.4535
-4161489.77703
-4539769.364
-1496546.31732
4415655.11398
-281386.082494
13439521.2483
-9526991.51267
-10734090.8544
-1333203.11861
-3913565.27502
-38636.857479
38644.2682966
-16937.2378869
16945.803168
149068.343183
-7594007.97454
12217356.9083
3804204.80003
-1544244.7224
-665247.576828
1294820.79503
10120731.2098
-301997.616754
2136028.57625
-588.205727462
589.535845586
-9086824.36467
-341285.6881
9580734.0795
7986754.86939
-1522241.97214
-3607686.0706
-7402.22647408
7411.78794444
-4838223.1473
5115089.57084
10899618.0398
-1483215.99926
-3009269.44054
-2300174.15128
-11493.6986944
11503.8674318
-0.5911334483
0.601166696642
-595519.144483
7234465.91823
5074230.01222
-10147141.0919
-36266.5119551
36255.0161234
3484417.31375
-10802036.8856
4444996.28562
-18674.406249
18625.910062
-3875881.08027
2.26862919348
-2.27004492274
-10233647.6739
2125316.16576
-3654143.55581
-5336350.8642
30.5896841603
-30.6493255154
846671.764268
4901316.50762
6579960.0855
-1322327.00708
-15924673.9244
-12684.0537016
12692.4229395
-679707.247226
3728667.72051
-20587931.096
64.5852530446
-64.6084185389
5.67775145985
-5.74235390436
3182242.60296
-555830.368553
-4776443.65603
626221.542419
-7787103.25468
9.2257037794
-9.22964953045
-5360073.41707
7684647.52694
15552702.9435
-9601312.01607
-9268794.92691
-1181970.05827
1381648.14547
1832337.02174
-193678.014349
4996802.80347
3285106.58089
-12301655.479
-2430854.1694
-8164260.03673
-7694.83195151
7699.18768899
-3819030.3924
-2075369.12579
283096.614229
5.31319990513
-5.30558638419
380737.637018
-5415690.70798
-1960948.87433
-2918882.3351
3886303.9898
2442586.00843
3002168.76439
6531923.82763
-13102103.9915
-7416902.65508
5476123.65362
-350.511291267
350.967735224
-3105722.04731
-3818003.5357
-13362308.6111
427633.190533
583567.390315
4043906.10948
25401.3776983
-25437.2702072
11531343.5363
-5800672.17729
13968212.374
2301393.95427
-899466.461254
-4558848.83672
-6893274.7976
8648810.59213
-2595562.53275
20855051.1134
-14.8118935136
14.7901434716
-111865.998038
-3397471.42114
8119218.52561
-12422.5321726
12432.5868946
8693567.67306
1178706.35036
-1365120.72536
15868053.9331
5148364.02214
-7391294.88887
-5915005.14019
9957775.03275
-29.9076541895
29.8302545002
-4071219.99079
-5376390.67059
1249.32120081
-1244.48901253
-2017849.62255
10769324.7693
-9148251.34972
-1508818.69143
-9173.23460089
9183.78425701
-1088491.85911
-8743826.95239
747592.674821
8449018.64042
-2346525.71708
-1110123.28649
-35406.4919758
35403.2864832
44.7079654366
-44.7646897276
644392.974642
4643066.06235
4577205.69896
7548135.41362
7023319.00411
4802176.15427
-1665874.09936
-11612584.7544
8365774.20102
-147613.882669
148241.255544
3436609.05505
-44.9641868292
44.8414391116
-5235354.2228
-9450053.71563
-20.3880584579
20.33996834
1721210.20599
-3698999.7785
3110511.90734
-11079469.1022
-6496555.53814
1744686.15006
12.0237493642
-12.0217403187
14802529.3889
2255771.45112
7588201.68089
5874255.03925
4323218.88367
-1509817.22435
12.3179570954
-12.3237096056
727251.525658
-374741.066866
9800364.82886
-616.30977531
617.699675156
8005717.13494
7583213.4502
-394986.554999
7627492.59386
-8935696.76898
4065236.17222
5059360.35727
-3568610.06662
-4333983.45295
4083461.96152
-13248687.0483
367.364506427
-364.109666991
4126185.08451
12271994.9692
5479524.43041
-24242.1747663
24247.4388548
-3887103.02353
8559054.84155
1931665.00944
964974.165578
-1357290.05535
4251307.47466
-21.437306018
21.3879377302
4054035.61148
-2133545.88034
18.4594446164
-18.4847119392
-5433941.56997
4013315.40439
2506436.74026
10584520.3421
1810996.38355
4013484.51498
7524301.91648
-13190497.6052
-10929132.1424
1559050.48222
-217.002150749
216.973176958
3503447.69877
-6215434.97833
255.194500662
-254.930714308
17413.277466
-17400.1999229
-5266344.76634
-13769855.9097
2095674.78569
-25240731.5901
136.763631361
-136.068715233
-5144548.18379
188009.504852
1713256.91966
-1323518.68278
-96919.7562675
96962.453379
485030.836743
7758924.50203
-4800008.51266
1318931.21223
5742154.09345
-507679.423575
9636942.4739
4017147.11949
-5960536.4951
2100469.37678
354696.959504
-4595091.84471
11536518.4903
6961746.40454
3430115.20665
4336506.63341
-6620932.76322
-1225356.6938
-100297.594227
100362.313308
6068224.82246
2071625.89838
-340069.367519
341337.314257
-3030868.39591
2059383.55507
-2757599.76021
-2603726.85962
4520768.0549
-1832535.85716
-1514909.98201
5180383.09457
4559692.78173
-18.8620678086
18.8302706655
-1575149.17154
12103157.7927
-8362745.57219
2158887.06836
-1132609.29108
-1454632.53952
4382057.56286
-8464562.14352
18.3280647982
-18.3501465165
-4181336.85732
-1036299.44695
-3637.14534615
3645.1170177
4386860.02556
10971821.8902
-54942.3943254
54935.6759825
3371424.99409
3210278.1606
3256562.92522
4990237.77399
2138993.22181
345390.63419
-376407.909598
7199824.21845
-6959509.66498
1051.03492208
-1047.26908881
6764404.87326
-400275.553732
397398.878378
952890.231186
-136065.109655
136241.299128
-2102335.13178
-9885887.06234
2656130.03057
1835045.59598
7420149.78186
164080.505875
760.690967141
-758.252579331
6159163.31002
-183.09845168
183.127154218
-1373275.10688
-5588294.59409
953476.629828
6528196.4722
-106.991305575
106.801892679
7121.53006112
-7115.19915349
-89.3722404727
89.2321719583
989946.882179
232080.296231
-2794884.88985
-20062.3272358
20067.4774284
900976.424754
-1017983.08551
9568190.2305
-8375168.06803
-356.753296995
357.165153323
1941714.02616
10.560300899
-10.5744024506
-26.1856261211
26.1042753533
7871339.78003
2209085.52783
-27889.7149549
27887.7173134
321452.203668
-320739.366116
4906075.37414
-4862758.76205
1725227.35639
-56709.1437223
56735.994928
-119944.578756
119822.407579
-4970829.21363
-8809779.09831
5141626.86816
-1925061.94473
-232716.404621
230325.749965
-45654.2156727
45626.4890545
-6246068.74977
840147.629291
2026223.43491
8738416.87144
-1082.96481177
1086.82829806
196179.098407
-3790752.76285
1141294.43673
-234.100069332
234.244958543
892977.484728
-2841670.84615
1154.71726157
-1149.45106633
-0.154067512949
0.162029484941
24.9420116719
-24.9996407746
-6145055.23369
1099.19814892
-1095.62540941
-2695065.13848
-15797.0521434
15801.3665384
-4094741.11047
493883.419862
2873805.72727
7599458.30837
9767888.95502
-6465139.27942
-2547976.20033
-7293.16443817
7304.26920443
-419.334341601
419.979192626
3454136.31833
-16854591.6398
-7833.56118512
7846.09977009
-11815.9592721
11827.0551222
-689304.381266
-5027635.09095
-2678739.88466
4956733.81922
-3717355.1321
-654283.758271
4656268.4898
-418323.729791
-51138.492219
51087.2066869
-868544.241363
801224.016002
-47629.487896
47598.9260646
-2980087.13965
-3813133.40462
36.9849043657
-37.0598015056
-180937.717064
850684.532226
3808351.30785
-26181.5857899
26182.9692741
-9137980.19437
-88.7367329851
88.6513187017
1290017.37282
2454908.97345
135.04802572
-135.108778601
-151104.211346
-5656906.78006
-858852.941632
-105293.173195
104904.153825
7734636.21735
-7998.91795991
8010.07598805
5501654.38484
6.30586237267
-6.31075968623
-11727235.6698
-201746.562301
202526.068051
364153.000039
-405232.787571
-11016538.9986
-5208417.03415
-3976926.54438
-2049023.31838
6813260.67189
-5695100.59876
5949219.96097
8473978.06735
-7188285.62651
-20.0314561144
19.9956859012
7971012.04998
-1996410.79098
-10519630.2955
4709985.69105
-6446477.25121
-9701678.28729
-10015625.9931
-1911897.47524
9612840.13151
-8924984.24324
-345535.825804
3086064.62204
-1315292.93926
-7093338.01175
-4511076.17931
3254824.49674
8107700.50868
1067.94994205
-1064.98087091
-7326223.72874
-89333.4758331
89366.6011633
-8199016.7342
-132094.513362
131067.901989
-5602460.85166
-23.8633754165
23.8099200108
-3326424.34858
-1759.6203608
1765.19304619
-2429240.43608
512435.37568
-99.2396820201
99.1322532685
-2305255.55186
-2768780.72848
6262908.09167
-9032387.06255
-2599175.30951
3299239.42047
-3575126.7581
-4076150.49586
-776737.098365
-10061224.3659
-683919.76009
746135.250294
4623021.28685
9583830.23287
1110317.67327
-290123.194099
288072.218369
-45128.4893471
45135.684281
4205510.83219
-3428153.94095
-2999.24625335
3008.04664795
7.08221692258
-7.06778562509
-9638159.2449
8448257.08706
8475972.68407
8.02330436587
-8.02623176799
-11135970.3713
769601.578284
-2361754.79285
-3424283.92105
3278778.33638
-1803471.09812
10115027.0621
654307.45315
-1259865.75002
-12171430.671
11.9878474345
-12.0172528384
-35931.6145092
35933.5695749
214.788710221
-213.995188004
12985350.4697
-714003.275306
3857689.56604
4626397.65473
-6272230.42368
3664362.59266
3050795.45089
-1593495.26333
2087392.62194
17.226379991
-17.2477062102
-11262960.5882
-9983054.52628
-9780011.83845
7604398.0701
-8579.7101287
8590.37203735
11026661.4059
-5757392.0663
-959770.102474
1065878.49888
1883618.21445
-842094.101512
826157.546969
-1519571.07339
505744.725512
-510644.888031
-3462232.64366
-6323861.45797
401289.195806
1499987.2104
-1072775.21514
704.39454696
-701.971634199
10164738.3631
-12254163.3664
-922827.599612
62663.7738984
-65296.7461575
-1692718.93947
-2504560.45739
6769334.13115
-1996.17296816
2001.97171089
-5481.90279133
5491.27956997
-4524040.3264
6709568.78915
20860013.5639
8131989.4814
5480052.37654
-215537.230271
752376.519985
-1983925.61136
-6797793.06506
10335379.7364
15023533.433
-9451791.28501
-6314.39560479
6221.62816552
-8888300.88766
6716874.7725
-12899.7460293
12909.5062101
-3464742.62349
572883.121743
-5.8619972327
5.80984434582
663672.777259
-299.35496802
299.558409854
-3128133.36917
8575979.23863
-7.6151494841
7.56278394332
-20.9102969398
20.864656022
3076434.77953
2254674.37652
-3374389.06263
-1489138.9345
-3774180.14477
6990143.49648
6.14123913704
-6.14949995935
-5050926.51197
-4377230.12136
16281260.1702
3336847.17202
-80.7254265473
80.5088154167
-9816341.53921
274119.417286
-600486.73185
7951645.93164
-2640541.12709
16579571.4429
5522079.80443
794722.093363
-12725266.3201
-4654128.59126
-737606.453254
-4629287.59603
6520396.55625
6227688.68435
3461407.99989
-50626440.7453
4812971.6399
5298927.79615
2991993.9552
-947916.439278
-5712464.30816
-9118542.98559
-11842530.1401
1618033.24652
8716962.4549
-8737120.65008
-3815.24080113
3819.05458482
-2043671.69003
-1619470.15294
8400377.73695
-3878.3700148
3884.3362401
-5052023.62221
14633096.8015
11509165.5958
7068516.09258
-11550.4936628
11533.57383
-4185645.0396
6321151.27309
3866963.85382
-4950956.67544
-2.02085747126
2.01930687963
13812583.652
4418854.89365
-2189435.69956
-1540412.36355
-7072318.35829
-20199284.5801
-3893125.24428
-1954061.77052
-514613.866969
1157175.07496
-8817.08736443
8826.95096147
-327100.322614
375655.256309
6669364.1153
13.7474392141
-13.8438373044
6.85887981937
-6.84040707571
4316201.47601
2210428.94623
24268041.123
429447.336887
-268258.597674
3588945.27735
7473067.03814
1407764.03135
-12684545.1469
-4228306.5932
-288194.69804
3369260.6346
6463957.99653
-2693477.59158
-489448.255046
2364355.50942
-151871.455134
-55057.7619532
55028.4133601
-2908860.82075
3917705.09938
-11538091.0983
-2689039.06946
5694398.89558
-9238231.9953
-4408882.69424
-10290.8699951
10301.0651257
-24782.5616618
24777.9070338
-1151785.35175
-1649595.55221
3108778.32965
648507.73036
2126741.03455
1288.23888557
-1283.79704635
-694273.867306
-98794.4971263
-570773.822856
557996.463659
-4573094.11327
-14304383.8738
1255774.4329
5947921.14318
1.8067431879
-1.86739943002
10076829.1273
-253141.833329
252958.077849
-8692139.39344
3194024.60463
760.081876148
-757.116668117
-17707.2375625
17713.6989799
3894091.711
-12546693.8973
2028546.78658
1900822.70941
-2830945.62411
-3627077.43932
536294.115083
13748398.4077
11857991.5905
4738737.84917
-13845389.461
-3583923.09876
-21334.7063838
21336.3864282
-80220.2011175
80231.1915793
-12756318.2203
-17.9129995446
17.8890690833
-2119453.88859
-20238415.4653
-6328849.72621
7773126.58458
-4283275.64321
1095318.43863
5341741.57508
-5134958.58129
-4815004.55862
-173.794722814
173.843645999
12413557.0196
11944860.5902
4325078.34935
-1869604.98766
5585102.26468
-16050265.3413
-4637.5570739
4648.3399553
-461607.97952
457564.591342
1697174.2687
11894.7670482
-11887.2489102
7150882.04195
1992376.57724
-35637.00446
35633.8168731
-2147878.24565
2505038.13493
-7463430.10695
-8702798.59578
-100251.023335
100137.582287
-2374244.23187
0.581744759862
-0.613674041019
-1414687.44683
-375940.305132
1987148.98238
-112820.654302
112646.120976
4962924.35955
-4779564.7762
3165927.76543
-2701993.73251
-7267842.15639
-2963754.06114
4073142.04333
-1815021.61284
-357688.02418
-4536921.42197
754716.505601
3913878.31401
6574885.95668
0.593875098766
-0.597063990484
1963127.95622
1535944.09511
1100113.10616
-2920417.64347
-66979.4167021
66904.6702492
-7084458.61593
-2723.19755892
2730.00196481
3038280.95159
2478838.34743
20681200.5781
39898625.9829
418211.440252
3960003.58255
-1724048.1022
7051758.14671
1258700.91689
-3783530.81347
-5103726.07501
1.2191641282
-1.21989642859
65549.6266313
-8623817.72487
3.68698149627
-3.67837510943
1444819.94667
-644.354004627
648.89770606
-6864569.69107
-5975.2549772
5983.77992028
3357782.94297
-5373252.65274
100768.560614
-102426.643204
3678696.1708
2545573.27712
611215.28753
-13672106.2444
-587869.757903
495034.605207
976531.929864
-10773565.2468
-2827807.70203
104.592286479
-104.0963813
4544985.94834
3410355.76117
627964.698777
-2358139.57094
321920.933977
871685.130505
619207.636512
1956651.48148
771350.368511
-700915.652643
-433.00518449
433.878630962
-6759090.81285
-5695143.61275
-8282798.55749
-1512897.43456
7529473.18069
-3172048.34441
-3666615.77889
11845976.0554
2934947.40853
-5726627.5424
-18913178.8856
-7273572.92258
-845852.419031
-186572.826352
186040.972354
-14193.177542
14202.7467408
-90.7935953071
90.5592513214
-81918.9140745
81962.8553046
6090541.07199
576099.875986
5910418.5888
10373153.532
-6423273.3375
4371668.40244
2408595.09763
-8012804.98276
430.9342983
-428.407934552
195810.529055
-914.777910363
917.263786567
-5882734.79795
-12788698.6504
535376.909621
-11881456.956
-1857831.48269
11746149.2607
-4296168.142
-89.196401038
89.0923332473
-21488353.5028
-7897875.33234
-269.227537105
269.345797546
349040.615828
3450714.3227
-3373559.6738
-2263063.74566
52.2624316731
-52.0884902949
-392.219189124
392.853929835
175026.609365
-1059064.75012
2310742.36585
13.3404922304
-13.3646149297
590035.496395
-3206945.74065
6828955.70622
4113020.769
-6616492.34182
-8751801.58463
1890636.99835
-211907.153277
-3036896.28809
-16086869.7528
-7454658.79701
-35.4219878187
35.3354326832
-2181194.05597
-1707246.14539
2879655.17931
-1742179.28026
1348957.47369
-0.703915687963
0.701858553752
5676011.57828
-2356002.95444
-2.2980179682
2.28189547366
227308.856135
-16654.9084086
16627.0067311
4543892.60749
5343977.00819
147.579002012
-147.587564873
-4.72909321559
4.72547665131
-12349499.0806
-2547953.18206
8083410.96373
14597414.4779
-3676541.93883
13.0059034451
-13.0094004855
-15746659.1379
-3808947.70112
1241481.8226
-12206969.1181
-2075747.03741
3091334.8644
-11283156.6678
-971615.890112
1735396.14711
5891400.04149
3909317.47333
23133180.5044
124575.980441
-131971.094483
5875347.35227
861173.344164
-5756303.39795
-1683013.35878
19790936.0365
2734483.56233
-5215002.80844
-6193617.61393
-9040226.22085
-9272.66165114
9284.85707708
4294733.90729
-15.722922795
15.6858192715
13686393.5801
12054030.0934
-3828413.72771
1501598.02378
-5993098.60282
-716249.788619
-246244.975509
-4419370.86856
-21481908.98
-27.1151112673
27.0430018752
-880651.525581
6622955.72114
-4015213.2342
6418353.16662
-3.10813607577
3.12526139665
593415.803864
2840569.26925
-8201000.70948
-231390.211408
-349.477250854
350.890579629
2203638.30897
20634137.2495
-88860.534667
88424.0412642
-4574189.3699
-1735521.01223
-6289547.10233
-746873.362929
807890.380394
9298874.01477
-5642133.29698
76563.8944342
1542587.31033
6964785.37813
1732099.03016
13100660.8523
-6282703.65403
-203763.286974
37095.6394122
6912708.60708
-463950.075367
639.777170306
-637.248483713
-5415936.20016
22802853.499
5.82183398481
-5.86349924858
-4511568.22284
259584.841097
-104486.977128
104437.759265
11938020.2518
-5337926.6098
-3406138.17661
-1006.49738984
1010.23582252
52667595.5917
-9856222.79189
2210179.10102
6.48944198642
-6.48196013584
-8949.44227647
8955.99015325
-6184970.37145
5255904.34158
-2638551.7646
1125785.92245
1323515.83101
525990.491074
-84.0620218805
41.58364429
-29.0408654824
28.9497316262
1317813.76285
-1415035.87664
8246007.94801
4376976.97441
-5735639.18598
2064915.4005
2440972.22414
-35.3129131854
35.2115070909
-8326944.18776
3166119.66727
-4222240.13092
820394.920464
-105250.966189
104555.203556
-3303656.9141
-4575786.06139
-96.1694622276
95.9665768917
-264929.908675
-3577.11050284
3585.24541649
-2760892.79038
-5605957.8072
-10258026.3685
173.674418095
-173.683260555
5618146.306
1845.76928461
-1840.23902181
923158.854177
-4759601.59054
-1764875.28797
1612.52263805
-1607.30539684
-4215199.74289
-1952991.70945
-10061547.615
-1548.26485339
1553.55406352
-40518.0025611
40535.345993
2487973.6503
300307.602375
553068.298196
-551051.561748
1358051.5209
2799354.67445
-93502.4487108
93608.0391169
1278.81008705
-1273.76094171
-5043157.57307
-3694490.83038
90356.6079337
330638.37238
3340647.68355
2171967.47224
5861285.38944
4896969.65762
-2320321.10577
-6567687.72324
-14292547.9535
-43.5005859046
43.3985126046
2646331.38844
7016144.10992
-9453.17445234
9458.66065896
5814829.97966
-469576.749566
-2424358.31674
-1118762.09774
-5460473.62687
11767568.36
-6368254.81084
2505824.66173
-595117.858801
3981962.36199
-4053001.83869
2836756.35962
-507.395816105
508.193946085
1987062.86024
6451504.84798
-20803.4430164
20807.4741407
31.6131649457
-31.6119060539
3767077.23632
8329625.90887
32.0748022508
-32.1722872324
-125567.689954
124155.373233
-44.9932462272
44.8780417931
-64.4586921955
64.3494502922
-26814732.9381
5116614.18761
-6115511.11075
-1019166.18569
2.18557331527
-2.18087032281
2845537.69471
-29078.2606
29077.0845163
8101579.3278
-1007398.43262
-5764.76120222
5769.12041972
-22288.0897353
22294.5791921
-77.1425642516
77.0318619561
1089855.20691
8013567.91835
946282.91324
149.622486449
-149.23709257
8278604.92459
-9028971.53147
-1737536.46236
-11775386.6023
-3266332.64017
-9209685.25367
9856749.63855
6574235.73169
-968233.309307
3934724.99529
-134985.997071
135432.206957
-1137406.38425
803016.383314
8.91125368678
-8.93588196428
1232253.1446
-6498600.47413
-8756264.81418
9.86290177108
-9.88748383601
1598918.79742
-22244906.0695
7364321.99761
-5073696.42383
-1151971.50458
6579511.44446
-2781727.261
-4842237.59345
-5760294.49585
7654769.13245
4758300.69089
4178776.48814
1000394.45243
-976.709937949
979.937480226
-0.133121898608
0.123772874895
704257.543968
-542169.166246
569916.924176
-4925867.05733
597.34236354
-595.083303562
-2103164.66136
3835527.4663
-22334485.8545
1574598.66395
-331684.838188
168.725342855
-167.89416093
-5453615.99112
-397.511631853
398.024347628
-52.488972211
52.3757503628
5364754.24291
2809385.76964
132.222515828
-132.246189131
4133956.39061
6297690.80413
14247037.9716
5288114.64802
-3291942.0347
10192040.1743
278978.231644
-300912.421064
10971744.147
3511010.84654
-325.183532018
325.586570215
7263916.30071
3842367.68391
-1586989.54294
-4511686.21911
-9890435.1634
1205212.31573
-6047198.74271
-6.07548558017
6.06432627371
-3.08123063279
3.07882474287
1797621.74798
-2573694.17412
-29229.142578
29232.2101586
-355560.006899
356762.733184
3374831.80232
-1716939.60447
1163.56021374
-1159.36896276
297729.137789
-8002290.87976
-65.2916409101
65.1034107297
-205445.412334
204930.981631
10.6269993045
-10.6514543376
48.9440376718
-49.052229057
-281489.956129
-6492608.17773
171153.128898
-7708319.48425
-430.647836205
431.107807641
460682.328511
-2301259.81516
185.081170322
-185.090201002
-979178.598461
5162296.90228
129752.720305
-132755.71568
-301815.129359
299281.806972