/*--------------------------------*- C++ -*----------------------------------*\
| =========                 |                                                 |
| \\      /  F ield         | OpenFOAM: The Open Source CFD Toolbox           |
|  \\    /   O peration     | Version:  5.0                                   |
|   \\  /    A nd           | Web:      www.OpenFOAM.org                      |
|    \\/     M anipulation  |                                                 |
\*---------------------------------------------------------------------------*/
FoamFile
{
    version     2.0;
    format      ascii;
    class       volScalarField;
    location    "790";
    object      gradTx;
}
// * * * * * * * * * * * * * * * * * * * * * * * * * * * * * * * * * * * * * //

dimensions      [0 -1 0 1 0 0 0];

internalField   nonuniform List<scalar> 
5796
(
-65752452.9635
-8732.47742617
-8749.54472853
-4324.81990859
-4311.88193481
-232273.71975
-233163.550241
-56568698.3155
-42360774.871
-53132918.0218
-60832496.8543
-43206114.2164
-58206720.894
-64844503.9143
-9450.3500626
-9449.00495268
-63938014.7884
-25264364.6478
-801.755877551
-799.227263724
-122.178235354
-122.376426985
-61587539.5361
-371177.935544
-374263.335563
-11845335.788
-59259800.8274
-1248769.92907
-1493587.31116
-5235831.07308
-41352.9382408
-41352.1161616
-2612.87325964
-2605.48889968
-74.975153841
-75.161691719
-9346.100966
-9341.94611514
-45808486.7663
-20211916.0483
-333.383754918
-333.550950819
-54127959.0155
-28428460.3008
-48037615.7388
-46916710.5503
-4359902.19509
-66694634.3523
-59.6692515481
-59.6938006779
-233326.331669
-234630.802798
-154314.021114
-154665.923645
-6408.46858907
-6393.31238796
-49197.0946758
-49214.5114217
-50805908.2496
-2653919.59449
-1756189.73904
-48687830.0685
-6097377.70603
-43566543.2568
-15522390.4927
-26060040.1485
-1310.66716028
-1306.50027267
-56448002.3545
-3565714.93639
-45538382.2454
-73.6003550417
-73.7888440281
-190.878326122
-190.999459005
-12173931.4647
-22365027.6571
-10070637.8975
-25264.4896818
-25259.242609
-1501918.9321
-52376618.8402
-25461.5895029
-25445.1782158
-741952.590981
-769878.402066
-531.748068892
-530.860480876
-50.5193298291
-50.6277513918
-2157461.34049
-779.697372502
-777.297400981
-35.4584684231
-35.408793188
-70095.3730989
-70160.9070987
-577651.743151
-591849.767538
-59334577.7935
-50805851.956
-36349703.7277
-28534811.3417
-33852127.1624
-55325694.9422
-25394263.2322
-52770385.845
-33418899.0056
-126.936874178
-126.995936802
-52717388.6517
-40.6424412826
-40.6292993654
-2427.33847559
-2418.33456247
-9012979.12691
-48193324.5356
-55610369.1742
-418201.414054
-423485.82498
-370.203926719
-369.941896506
-53449790.0369
-18501168.7134
-41672208.5213
-29830702.602
-52674398.5289
-15495.2454928
-15481.4943508
-3797.82137734
-3782.69512353
-81077.4930351
-81180.282573
-165.237336609
-165.263915646
-44330003.4359
-2784814.08675
-15406886.8142
-34.1194793803
-34.0755138001
-45736539.5786
-41766799.1329
-6423507.34678
-4820274.53249
-1324.57489335
-1320.00579109
-776209.372639
-838691.143549
-62356.2390276
-62422.832541
-261888.1228
-239724.113313
-901933.937548
-9778254.49481
-343.245624493
-344.236339224
-58009310.8941
-317960.682765
-53877049.0889
-7628501.47365
-34534852.1154
-37394.8592239
-37182.6966355
-578951.483318
-588419.488756
-42523157.4495
-35105895.2015
-5768834.35577
-43688647.4163
-33846738.8971
-44356205.9189
-39834844.7236
-54401764.8717
-40999477.1008
-37927095.1509
-168.3005548
-168.70094182
-51032637.8502
-44128104.2179
-53181027.8259
-45657317.769
-58056268.2306
-43450516.7451
-58081011.915
-2731781.55503
-57581636.6912
-56417422.3058
-43659.2215822
-43464.6954768
-62.0092814876
-62.0399595056
-45716767.5847
-43475310.1141
-293077.667774
-64711254.964
-53468544.4833
-52683477.7397
-24934205.6123
-74.937907104
-74.847548986
-51344131.2016
-22058407.1344
-47410067.0844
-50388854.7153
-157905.378164
-158519.172083
-1878371.7678
-39336207.5217
-80.0202101802
-79.9579928474
-6963.81647222
-6960.07097336
-59492082.5533
-100.002832009
-100.160249289
-46008799.9255
-36478735.9087
-45418844.8129
-331285.870053
-259119.944207
-51748857.6658
-670814.354085
-52793204.1213
-53550337.0761
-47072617.43
-9664113.30696
-1824.88073218
-1818.5411069
-31084168.8174
-882.769780516
-879.9053882
-1453171.21212
-344520.146666
-61263630.8703
-49699882.9078
-52222937.5259
-18996.1762691
-18969.6338948
-41154291.5958
-52477613.2666
-59349664.1533
-7902916.20151
-58995175.3102
-36940760.2596
-954434.429065
-13194548.8892
-505554.542881
-49851221.5014
-10068659.5892
-292.425834398
-292.705827189
-11616192.5609
-155.40886534
-155.503934403
-8953.62146387
-8944.39973094
-7237.86924907
-7227.50150546
-53669794.4943
-47621169.7912
-50283450.0128
-5309511.10472
-6373217.3027
-47211179.5089
-643492.875292
-1541549.57053
-63439519.4777
-57131377.0686
-52377705.0957
-2580070.96509
-2168842.00553
-49598244.6475
567150.49293
-21163842.4179
-33.0214857298
-33.0088288669
-39.5835718899
-39.5713056293
-54015768.1382
-22.951648039
-22.9034308917
-47651311.3793
-48208768.3008
-57762196.0525
-47860036.3829
-1619130.43697
-876762.522259
-1816622.65573
-51422130.9069
-663798.509104
-701628.551702
-59005309.9515
-1705665.61485
-45731761.0634
-49812247.9509
-23772608.0944
-444188.25849
-450034.212803
-47757807.6182
-1356.92030416
-1360.41508012
-65032214.8273
-48569488.783
-59957489.8703
-583.077436612
-585.500274934
-51507841.6062
-3782816.50183
-4865.23708741
-4859.77800269
-49827640.6161
-38133865.6459
-20.9560715323
-20.9210191863
-61686010.262
-63708070.6564
-44794317.6492
-139770.197152
-139237.561589
-52488913.6789
-45525621.5499
-1376.26190138
-1373.11310137
-891.298808412
-894.086139518
-53085943.4039
-759602.207352
-24.1379978967
-24.053113118
-53907905.6135
-53348882.4084
-13363069.8379
-47081720.0759
-59968243.724
-44716797.8151
-327364.834347
-276520.985759
-20.0808889135
-20.0566956466
-43964623.403
-50894151.0943
-38616.7671175
-38612.0144351
-56685791.5979
-51709636.813
-51024518.6892
-50745301.913
-11294.0210186
-11267.0033057
-48847207.0665
-55606618.0026
-736716.694066
-7926235.42477
-50228966.9347
-43635756.6063
-42376320.202
-4394566.25324
-40879441.6395
-43909330.4933
-19.9773303937
-19.9370382048
-47418243.6859
-44788719.5451
-5569.37329352
-5574.77295788
-211990.105923
-196553.382468
-47477100.7076
-2234.57020623
-2227.55277118
-64065991.7572
-57903745.9945
-39019487.3165
-51794316.5894
-220.68655668
-220.950317705
-24.0070847883
-23.9697593806
-55081743.6375
-48204784.2856
-57129569.7305
-18843801.0411
-506.702851069
-508.333416757
-51376539.7457
-45232557.6087
-119621.929684
-119483.824309
-98.9263504815
-99.1177579142
-3453146.5782
-44544065.7132
-44359980.4186
-45894107.2797
-49529242.1549
-51329612.7819
-11.876996345
-11.892758648
-51141500.3155
-53.7655495403
-53.7933476973
-57159160.7654
-14340125.1805
-53650246.3988
-5839.91989922
-5848.734202
-14.1525295019
-14.1324906748
-67950779.112
-53963482.0286
-57371668.4395
-49122903.3059
-46702138.0541
-40.1255044243
-40.0669803897
-52190924.4306
-849.272884755
-846.518444052
-58748941.9531
-54162186.7924
-47748809.8297
-52632859.8015
-46805277.7884
-138983.210155
-138814.592602
-4893219.47345
-45049883.752
-44475332.4826
-42911477.0413
40538.6356209
-50633913.5624
-47899289.1965
-42056944.9571
-54592484.7186
-49347392.2004
-36560186.1833
-48860880.2988
-42118735.0935
-20.4686943678
-20.4249512763
715.374625554
717.773623257
-39074199.8579
-33227139.9923
-64735800.3719
-49103255.0395
-59855454.268
-1213510.11134
-46947158.0424
-46670026.9909
-299830.221802
-257879.02362
-45820166.1572
-45926615.8204
-45920692.4198
-8241.92921277
-8237.29471749
-24.8785581149
-24.9361606197
-51062802.3871
-15057543.935
-90.13653295
-90.2482280435
-53513416.1104
-55822698.7264
-45316616.1832
-47479233.0882
-59024215.7719
-45134213.2734
-48687684.0106
-1126398.52373
-45102246.2222
-41633538.1169
-58737246.5467
-50860185.7825
-11423.585523
-11431.7581139
-46417295.1498
-17723.3135617
-17713.3115391
-5102177.80168
-292.654536714
-293.448938952
-933.74407714
-931.279885698
-33167777.3622
-48151304.8335
-4120764.3771
-533764.663669
-600811.729043
-56521657.899
-14.3320802024
-14.3015425111
-33997533.2871
-9954569.78369
-48879410.1892
-39532362.088
-51157159.6573
-45352245.3234
-42941318.6692
-41883.2673409
-41861.7667878
-50114773.814
-7495.8003965
-7485.06003439
-41771179.4619
-59727836.8095
-66282018.2634
-730521.964047
-63409597.7317
-54096454.2555
-1933.33163847
-1927.25626296
-65604.0481069
-65557.9930066
-53515817.0719
-52425418.0943
-46007700.4144
-28166.7786794
-28159.5139597
-40498994.0725
-51404936.3012
-83862.408442
-82732.1152406
-22.4791909309
-22.4398480993
-57130886.5792
-7295960.99495
-48555499.9372
-20934755.1479
-50.7636448615
-50.7753807881
-3731999.20997
-22166514.6289
-786.407236525
-788.746838058
-52294675.9281
-1656.15099327
-1650.88922202
-47449572.4656
-42421245.4693
-10929510.2336
-19.650515912
-19.4540277784
-555909.353903
-2120825.09362
-50787649.157
-50770784.6444
-57119419.0348
-62369713.049
-1744.71405935
-1740.33807321
-41549087.8301
-42608350.7164
-48429950.2617
-67609758.2576
-560771.779694
-933303.5145
2638324.72657
-2123896.64989
-19349612.6559
-3181185.53305
-44417655.2283
-49974440.8893
-2674026.86258
-3026192.46458
-50303251.265
-18.011768284
-17.9742949515
-2775660.75772
-211.312400979
-211.553514348
-3173660.46072
-57103846.1669
-57484208.0795
-43.249732015
-43.1670522884
-47262239.1961
-40328203.6257
-32490693.053
-47256455.4107
-58528959.4215
-55071111.448
-59280275.1418
-46167549.4936
-51263179.4435
-854.665410909
-851.966741178
-60314124.761
-48734926.9373
-65016149.738
-197429.645203
-194913.2031
-35020589.9622
-54113278.2015
-67552182.1868
-47146623.6464
-48761905.9683
-42676573.0398
-59534984.6471
-22.3679939157
-22.2917548939
-48668276.0934
-48357971.1875
-48662538.4638
-52249932.7532
-46224741.1411
-19763012.5012
-59351091.4051
-19.8313532333
-19.7670075737
-60270157.9088
-55895287.6465
-55044605.9972
-19.7837918916
-19.7971747287
-54.7085904096
-54.5823662746
-4354.82351446
-4348.86833766
-44387960.472
-49808132.8787
-37762145.6909
-294.431156341
-295.99014767
-61693758.4905
-649183.679072
-38288970.8926
-50315252.5249
-125.33613773
-125.454667633
-52096715.3051
-48723342.45
-49594879.819
-51193001.219
-51717411.4662
-43507702.5468
-2162883.3128
-192999.373104
-184787.2593
-16151.0185026
-16163.067083
263.258712597
264.168970161
-38495844.2299
-11550588.7867
-29582435.0535
-104.268302261
-104.313472145
-60377534.7822
-42176201.3403
-20.6347108688
-20.6394013677
-41543801.0754
-37924424.4362
-55828591.9991
-48755228.4559
-54854662.075
-47471886.1466
-7163165.88453
-22105513.1883
-47546140.0008
-56567319.0021
-60304299.2953
-44935.4290572
-44935.4037843
-16789.9677485
-16793.0059121
-45960371.7694
-69406619.8731
-41773753.6307
-55103965.0332
-51534425.5878
-409216.592733
-47201631.2553
-6929879.79443
-889865.855806
-44092493.5689
-359.06517426
-359.8796245
-49015299.5625
-50924651.3626
-52806144.8496
-60725036.3861
-58681416.7956
-45899390.3738
-2191.64340781
-2192.94589364
-59598416.9129
-53865895.942
-55717919.8678
-50243264.4013
-37117384.8361
-53714222.3383
-10382.1752724
-10385.7475392
-23.6409263631
-23.6053955234
-55785459.3015
-2949453.33004
-49675918.9218
-59008363.9517
-58927.3409768
-58922.1113935
-45455097.5243
-47671793.2367
-42279959.0328
-87361.7161202
-87273.2716742
-1629992.10249
-24.1862604625
-24.241163419
-10903068.8216
-13024504.9103
-50766851.9846
-39656834.2851
-131.376022264
-131.526692072
-54362813.5118
-300211.639492
-52940026.1405
-52741289.6286
-27722425.6656
-3610.80822275
-3609.79036835
-48624237.1348
-58775197.4343
64380.3608885
-207.077754555
-207.227819332
-89.2386376259
-89.3574543894
-2123254.90584
-41061163.036
-37883449.1515
-57880436.3219
-13121725.7097
-36.3882507866
-36.3560585879
-42989765.9518
-18926350.2092
-58321157.2439
-52999952.6662
-54016518.2582
-45713694.1406
-86283.2356398
-36760946.9787
-55826575.8689
-44870105.3057
-7601362.65753
-59762285.0786
-48933798.6185
-10511624.3249
-25912.1038556
-25915.0675261
-42837103.7221
-47474257.8061
-47981304.6364
-20.731652128
-20.7378827182
-35634371.5755
-58512336.6008
-1108335.0434
-47001843.1653
-43052391.2845
-37658287.3675
-2956193.11645
-49626127.7086
-40151351.4202
-832928.646587
-48535751.8569
-103.560771523
-103.544548266
-1135503.59039
-45362961.4126
-20613238.9883
-53151739.3424
-58552209.1071
-700131.616843
-58275.9007521
-58337.8928541
-56005438.1764
-9232774.04278
-21648563.6432
-45268333.058
-45236789.6676
-51777653.6298
-50204487.8146
-5100183.00787
-52930564.0312
-39721339.4335
-16.0867210313
-16.0498068737
-37976136.7309
-37583632.5598
-65960946.9644
-6973.32851731
-6976.18173146
-49493818.8945
-2819412.85313
-43164728.2575
-4806749.82959
-15418916.0118
-52437770.4447
-5062820.22821
-4027212.62441
-15.6243579283
-15.5677106829
-3475308.81532
-38362861.1571
-3861.21148923
-3849.27036939
-49997955.603
-49571976.7755
-42952462.8012
-48449451.5085
173.866609376
174.066564234
-60387476.6454
-45605560.6061
-357544.703884
-48689213.9292
-50872199.2197
31523.2313288
-42633.3075519
-42628.963714
-174.10286332
-174.245158746
-39805869.4213
-48981089.6042
-51502596.1829
-55308417.1491
-51134379.0586
-54621653.3281
-38572699.0366
-58593695.8354
-49257143.1949
-132848.087468
-133783.516242
-47959788.6349
-18.1034406786
-18.0270776954
-44355125.3824
-48660215.7979
-7.95327813511
-7.93477626932
-45894591.079
-13112953.0262
-60616370.1243
-2457278.66334
-52156602.2759
-51496260.8644
-22.6377459176
-22.6518733551
-38677085.5829
-41360066.3
-56989322.7617
-1452542.55867
-45219258.5159
-45473976.1424
-23.0172743066
-23.0400315322
-47994583.5602
-55258202.6191
-57688042.1635
-50.4408788933
-50.3291273022
-46290344.3004
-54089948.7335
-48584691.3656
-54359164.973
-45483912.7039
-534548.597158
-48881771.6404
13903.3744108
-40632108.5861
-44532220.5453
-53955413.5301
-3728.51436452
-3717.60143215
-56741944.8707
-46552183.5639
-54006672.6802
-26412.3314977
-26405.3897728
-42194761.4825
-45447282.32
-50989278.6381
-53268012.8982
-888999.852777
116837.52768
-21.4777320235
-21.4259533272
-48321925.1955
-53481002.7156
-24.739233545
-24.779908618
-53262087.9693
-65016472.9755
-49869391.0405
-46377586.6089
-45110913.1804
-48737802.3668
-59888331.7275
-19615842.5744
-2308403.80262
-45883914.7287
-17.2680193224
-17.265713722
-44615621.6889
-62510353.6885
-526.601369704
-525.761060646
-44264.9625133
-44291.2465153
-48095964.6621
-57697963.0541
-46493974.844
-22301892.7032
-1648.20504233
-1642.67284761
-45370772.5277
-40536959.1152
-40591963.4869
-585890.342922
-45998.3007313
-45914.0742687
-49501794.7546
-54085690.5235
-38477203.7212
-92093.5662979
-37123911.0778
-55295208.7015
-23978797.9605
-47057758.2951
-49833054.5263
-49926920.616
-56630842.5872
-44408417.491
-44284800.0972
-46325363.3871
-49104121.3163
-55105370.6006
-58633981.6351
-56088749.0362
-88577.3934395
-88529.0920122
-21639838.0285
-46446838.6188
-203925.935441
-203294.218493
-45560101.8445
-57098553.4955
-33220005.0667
-50935492.4922
-42690090.3276
-43470131.0488
-41588663.6432
-55850466.6673
-52234405.7749
-0.311564430366
-0.311039267829
-41035575.3381
-30057543.4936
-3234626.30574
-43158490.2004
-47839950.7062
-45679120.275
-28805495.5036
-59866259.8598
-17.8437693923
-17.8781324985
-47000633.3925
-53706880.2983
-1414.23383203
-1418.41908564
-6561138.0048
-49302081.3615
-23634.4347704
-23589.9654997
-52744349.1877
-49507762.6861
-43932956.2992
-34796554.528
-52237186.8498
-524132.028196
-522506.003664
-50379327.0418
-49251867.2159
-821.017181745
-818.624321272
-45735845.9048
-122390.788438
-116005.974656
-1610158.43751
-111370.281305
-111526.40956
-50420665.7602
-59099964.6683
-49270775.4264
-55268167.2005
-54496991.861
-43299689.0765
-2286.82177104
-2279.69219547
-52602319.0829
-113.645908002
-113.517624315
-49230230.852
-49114046.178
-862792.123078
-59174138.2628
-36.7010364079
-36.6545733648
-16836.6207426
-16830.0038422
-8.84327126637
-8.77070405178
-55627093.0473
-61913336.4871
-42185352.4245
536.99616248
539.827253774
-650128.294243
-613635.651819
-3775578.82128
-51423242.1574
-185.751983786
-185.868865317
-47868773.3442
-47.4386671454
-47.4470097317
-64.968169079
-64.8561257734
-64786167.6104
-913561.715064
-9417.62878694
-9408.85689334
-499927.753941
-497161.219326
-56764500.9948
-62681552.9405
-60091295.8892
-64036.6049722
-64000.4931805
-24509.0656506
-24367.5129898
-37689914.9148
-57854972.5581
-40753241.0846
-42607754.8911
-297901.024478
-299328.560462
-15306.7809994
-15289.2956479
-43968091.6067
-43003085.6279
-47050782.5376
-58613630.8088
-1322.37425568
-1326.49855376
-878706.904297
-43501369.3787
-168624.482949
-233.068814905
-233.144141029
-57468235.9032
-59576688.6391
-3741.8609651
-3732.53830289
-19.2745255184
-19.26740053
-35.2521090081
-35.2755411595
-63416221.6712
-1023.45374617
-1020.66326959
-46249414.6314
-30944.7057906
-30938.6525028
-45126406.4886
-29133149.4637
-49110223.4787
-49915781.239
-49602747.0301
-10576249.0968
-55908819.4424
-667.997090412
-669.743194643
-396.063865927
-396.65803132
-57244659.9738
-21241519.8905
-3809.52702556
-3814.7968891
-8262.84500559
-8266.64259044
-51713791.8679
-53533985.6394
-47889222.5723
-155240.154788
-5399757.69835
-53918139.4764
-45486335.7117
-58429128.4887
-10841.4790339
-10821.4071591
-38895482.0945
-47281271.8447
-6301.72149962
-6271.73274715
-32055580.9654
-52145898.0228
-46.7795292639
-46.8546040764
-56397668.4832
-442967.425676
-48581732.6177
205.0317467
205.042580953
-50555710.3524
-72.1066031095
-71.9528725384
-45324569.3943
-422390.396169
-137.099606775
-137.289973235
-53554623.2203
-62975573.6059
-51776739.0935
-148676.966027
-148989.174455
-43769388.404
-11314.0765026
-11326.1859161
-49335072.9101
-7.82152973906
-7.83109126664
-56459392.2291
-138530.828446
-138634.654079
-583914.878404
-607832.377175
-49066492.5309
-33069699.9799
-464940.095622
-39007509.1794
-48842914.8818
-31953782.3542
-55369067.3456
-42119068.4089
-6029396.31335
-12.8085925504
-12.783916152
-48350311.6645
-32572612.1805
-4753549.07354
-62963299.8739
-69891655.0125
-35432607.0458
-55851360.1703
-59185434.6643
-50881294.4137
-60785509.3128
-52081175.225
-50676940.3764
-50532571.5
-54183928.6625
-62452579.5309
-58629482.9523
-49678553.6803
-11587.8973644
-11579.5210564
-46202334.7623
-32817.1493255
-32717.5849743
-41722726.3518
-262841.585372
-263690.222702
20962.7096186
-47.6194369268
-47.5428130083
-39825194.7139
-498.829855097
-500.361445256
-3333484.11116
-44799753.9883
-34.2325870344
-34.1229866914
-48682851.565
-1166002.5008
-47489563.547
-58759600.5157
-51926246.7437
-455976.306675
370340.159559
-57256513.5115
-48553280.5168
-7783610.76844
-151803.272376
-219239.624617
-51187597.7761
-5054170.43769
-56323511.6686
2008.17435836
1993.97791718
-31935.9232689
-31904.7472273
-43323705.6737
-49938144.4748
-470.924935123
-472.562231832
-20.3505924217
-20.3061058753
-45646329.8999
-3551305.3984
-62237810.9241
-17.1293159211
-17.1541394938
-46276454.3846
-58732225.1302
-46866054.6015
-48783861.0815
-51801920.4858
-43314939.7395
-41080962.7116
-55019194.1
-49618088.327
-51816338.3404
-28.4774477513
-28.471085489
-24447.7019939
-24429.0979165
-666.944355123
-664.956572507
-53843963.9673
-44598565.1403
-49552211.376
-52852326.0837
-59522248.1534
-16290229.5092
-3371008.64724
-51609964.4436
-51544655.8298
-39.5740987928
-39.5634011452
-48670401.5775
-29163847.837
-57342813.1179
-1450319.98424
-3117.49887649
-3120.98150009
-51386592.5741
-61195924.1863
-449031.018433
-273553.389106
-57840093.9482
-130599.17566
-10638.4777805
-1028531.65964
-656045.293895
-665587.987563
-56209802.1044
-53531737.9283
-41752272.2802
-52328414.5508
-52149626.5001
-1874.00930678
-1868.21790915
-61305165.6092
-43869390.7461
-56560758.2453
-367941.935536
-371743.628113
-598109.243842
-43157501.7968
-45306535.8962
-1198.49677031
-1202.30969103
-229.133304226
-230.277813512
-65979751.2942
-47402041.8985
-10055453.5995
-60976797.1463
-47721780.3351
-941889.903155
-47270792.5475
-47072657.1258
-48175349.0488
-50076110.9436
-54552360.1494
-46501968.2591
-172072.587925
-171871.925045
-56679191.8855
-38355299.0989
-2844.57750586
-2844.75510443
-1882543.68939
-13600068.1115
-68.3295118043
-68.2054930196
-46874847.8821
-32.3948831524
-32.3433110136
-51399896.6972
-42439113.5476
-66.4475399133
-66.5737922814
-3.59594626301
-3.58203113702
-55749558.2325
-42820997.9883
-10466770.2383
-52038761.6125
-58096318.855
-44218293.0682
-32.4436128976
-32.4243230219
-53874924.9314
-47697626.0339
-24363054.9143
-5917319.57911
2.84090652023
2.8436389182
-42002648.1488
-45503286.8928
-50747069.8121
-44873273.8627
-50403693.3375
-36348380.2849
-48338373.9474
-1362742.98702
-54937733.6783
-25616527.0131
-483333.855034
-46965969.1689
-17076249.1803
-37810895.2288
-43744396.0126
-67197889.592
-7250198.78583
-12652426.994
-38341110.133
-56255520.6636
-44243022.0994
-48406128.6994
-49335578.8169
-1402709.23399
-1928009.33976
-21882583.2236
-13260.9286764
-13271.9103528
-61363980.5139
-60632682.2137
-48756062.2413
-1484.54167679
-1486.61021001
-52112256.3029
-45656781.2704
-28700620.0545
-50497515.2426
-70419.1802058
-70371.1976904
-43132831.2647
-2501428.39912
-51578564.4862
-961576.648709
-17.7620895506
-17.764486105
-35221955.8388
-40781905.0024
-1990537.97484
-43907508.8853
-3533703.61505
-39366985.6263
-40852894.4106
-64756998.7933
-52289969.9306
-46187111.7061
-3488.819513
-3491.94853934
-311893.555659
-248120.080609
-48611422.1344
-82.9598909051
-83.1056098302
-46.6379009484
-46.6025297793
-865455.651436
-41200047.9955
-21612837.1464
-48103786.82
-1664718.98868
-55311600.445
-45881029.014
323598.602044
-55616832.6219
-52027564.3574
-51391265.3924
-44595852.1193
-43743256.5835
-1200569.72684
-56215674.9887
-54216392.4423
-49890695.3752
-16389.9824333
-16361.2239881
-42162719.3259
-48386494.3899
-63550434.9643
-47460709.5015
-65548306.655
-7528788.62598
-55000620.5048
873.057183331
875.548254634
-5256.03196436
-5248.72049096
-43245543.0115
-56387273.5212
-397368.611999
-48848287.7524
-2256176.10975
-2045.14240548
-2039.28015263
-46031463.9615
-45012650.3096
1599.17089371
1533.11134322
-555528.212411
-49332436.0361
-2719948.29375
-54533860.4263
-59.7499926136
-59.8808617093
-2231517.83266
-159871.483078
-158053.539176
-51955040.7972
-46643085.4448
-2993.49193174
-2983.88832246
-12137.1277146
-12132.1150814
-43863498.5224
-38635888.6957
-45349934.4608
-38936926.4605
-61660726.5732
-41608759.4714
-1640351.91835
-52936791.0972
-52139089.3885
-43162268.6612
555749.779963
-34821128.5635
-8043.9638397
-8034.35902472
-99562.4911841
-99610.7772684
-23352210.9198
-10.1392183043
-10.1202423799
-45290050.9709
-15589742.3025
-52587678.8016
-46292899.7125
-53092039.3936
-43495173.972
-51189198.747
-47548784.4977
-43582998.8209
-197.258584354
-197.301418366
-54305008.1266
-2872085.32643
-47759460.0587
238115.880943
-57574569.6694
-39830964.534
-2291.91974067
-2297.04222239
-171759.193349
-164458.310371
-47682282.4374
-16029.5042478
-16023.294905
-54146105.9387
-2719836.90183
-18914.1814814
-18890.8077665
-60528302.0414
-1118578.69842
-48094664.4649
-63890196.8812
-25110.2718578
-25026.1258767
-1106129.0692
-29.8376317596
-29.8820742448
-49240930.9486
-50340816.6794
-2492780.229
1570.42838426
1567.99893473
-44494478.3185
-58148798.9445
-42500029.4262
-59845753.9859
-54640998.6012
-47731237.7287
-2914722.34836
-58535331.3004
-61149196.4186
-80603.2619305
-49603408.5433
-266270.631912
-51239352.9019
-28.8426141497
-28.8761859841
-51965386.6836
-50898821.5626
-52386627.0258
-52737940.5008
-5671.43675149
-5666.05773553
-9996106.36731
-1461.39675883
-1465.9063149
-58182342.7922
-55335537.9353
-39141811.666
-12121736.1016
-42924031.4467
-6398901.72213
-33609556.6438
-14618776.8689
-13047525.1276
-2895283.47359
-46390875.1934
-10.0034864297
-10.0157930654
-55795635.267
-53319921.1617
-18.9291233071
-18.9243940334
-46579349.6593
-4721.65411238
-4731.48571019
-42038787.9978
-9098.3352344
-9105.23106113
-68778890.7027
-3472715.98645
-348464.937494
-352119.102263
-50784101.894
-50767495.5309
-59591101.9062
-54872246.0217
-571150.229969
-503703.302912
-49401482.5867
-45003676.0491
-53974343.8767
-606.406284908
-604.756558475
-51517417.4903
-55241265.5161
-2158355.99812
-47947057.9657
-63492482.5796
-37657092.2929
-56950035.8428
-40484619.0703
-1242090.49346
-1229186.63469
-277.646192207
-278.10400065
-39299342.8959
-51194276.7865
-2068803.72284
-209579.234119
-53204471.3863
-51629838.589
-43035742.0498
-63359785.8978
-53159176.2544
-49840890.5022
-20022652.6423
-43838585.0548
-60776962.8104
-109805.162482
-108327.511083
-11780.2874577
-11782.8197778
-22.4941417989
-22.4369231199
-119470.945936
-119511.098286
-46188203.4394
-49982782.0118
-52758087.0197
-50951389.7605
-51993448.3282
-511609.782533
-58443448.507
-55800416.9286
-1969.08718005
-1962.52736362
-46101806.3944
-13399.6063888
-13407.9471558
-42310575.0759
-54999265.9728
-57399307.2742
-26193469.4747
-51277280.4697
-37915127.9549
-51464885.3137
-66.252086009
-66.0530784698
-48677366.5431
-43143729.6074
-82.5938824437
-82.5577697149
-39281019.4837
-55406781.0298
-55738192.979
-16552617.4913
-513.963583543
-513.408641278
-501.694016725
-502.727908996
-52458038.9164
-48612659.6776
-42401363.3466
-30.3367357915
-30.3288816189
-52167914.5318
-55524213.1485
-55761726.279
-52112775.9161
-56615184.2617
-35255094.754
-45900446.8826
-58682910.2312
-52524026.0399
-38080883.5673
-53703126.7297
-18.6762050009
-18.6155931275
-3419828.80186
-568190.984847
-50268158.691
63055.2596387
-459296.15439
-27.6194715064
-27.6774625074
-1032071.83341
-47632030.2024
-29.4061277608
-29.4662850578
-42825818.9786
-48640.9904081
-48599.7833792
-33866333.3543
-54592071.4001
-213.137035314
-213.159841679
-0.798029044012
-0.797418792294
-46748454.5883
-56496310.9285
-50241133.7026
-30033924.2077
-299232.440322
-16.472639435
-16.4899872962
-49936219.1619
-48679407.2786
-58676047.1739
-55682318.7395
72189.1139308
-53483212.6201
-54223778.2842
-49467433.4655
-58791689.5418
-40422012.4684
-53096615.9788
-6721280.39331
-438081.05933
-447300.237846
-35951836.6929
-64307226.8897
-47698650.3922
-33788616.2929
-20190489.825
-50745377.7164
-68044106.1373
-41684533.784
-45609065.0481
-2826.1013665
-2829.19582356
-44897238.6559
-30.403150879
-30.3779323545
-34292302.8643
-47392433.3563
-28187834.1071
-49544859.8836
-55082701.5457
-43127365.916
-44941313.0868
-50637970.4397
-53599514.5731
-2.51104096832
-2.50436325368
-37765555.6653
-60570314.23
-56261579.3532
-1621173.09136
-19.8927351072
-19.9380289155
-49554357.8596
-49208314.9503
-44956249.0774
-46837353.982
-685.057002024
-687.10359998
-53547452.6604
-59036241.3294
-188247.057826
-188454.35459
-44083929.4004
-43479048.5127
-54842897.6965
-168071.531045
694.872146041
-50831066.6427
-52218230.9373
-56687591.8743
-1347479.50018
-64526469.6776
-42506573.3646
-17833405.893
-5075006.83597
-52364589.1275
-26253004.9403
-66869007.8558
-36827714.4509
-1391.43512459
-1386.81828617
-52687023.2396
-52992877.9552
-55.3251418442
-55.4497674825
-47250277.253
-44591137.8034
-43828.4034388
-43712.2494977
-47348263.5416
-38081502.2131
-1364859.40139
-1004.59465795
-1007.80340509
952253.245682
-52467233.707
-6938711.84313
-21.1888587209
-21.1898349053
-16198.6135229
-16206.7113032
-50228409.0081
-54008830.1784
-43701400.928
-58210409.6447
-2563331.68874
-57986472.5925
-60312.3015876
-60244.8681589
-64.0755639507
-63.9433593241
-942711.919477
-53615188.1448
-55703413.7878
-64770026.4319
-43178094.2599
-4468268.12161
-3196689.63555
-9.15959416089
-9.12557400666
-63483174.8276
-43614846.6256
-46686891.7311
-44134473.2658
-237937.305392
-238813.72332
-60770249.4879
-50444136.3543
-19.8706518385
-19.8145691907
-49390998.7898
-931.906852804
-934.979071991
-47914828.6949
-67847406.0138
-47911850.5181
-290.279543795
-290.107850541
-56691022.7079
-1447.9895706
-1443.75929315
-49701130.9649
-63384930.3443
-66130988.2887
-1764.43780221
-1759.8547651
-55843082.8322
-56119127.5549
-55622470.3178
-420.559462748
-422.095856696
-58170.4168052
-58133.5990505
-53067551.8386
-54005717.9903
-269226.427168
-271447.605006
-1286734.33113
-48051664.4962
-52302.9789635
-52114.3319099
-8600.57175316
-8588.01948031
-49505088.0389
-50745632.7683
-1609034.401
-60038298.3254
-6175320.03317
-48343975.0444
-56917409.9769
-4056458.69219
-46723310.4025
-41240003.5761
-16282185.29
-43.8477093873
-43.7508788348
-43376844.3578
-40918626.2886
-27466.8987754
-27463.3263453
-53547502.7678
-53404226.2987
-62228277.5565
-953502.215639
-39416747.2046
-60531399.6416
-4415488.14331
-56197282.9754
-58791712.0475
-48302653.4548
-51801914.9369
-52944410.6347
-191.207690721
-191.361479369
-41924103.296
-58046812.0849
-6166.56259222
-6159.92084105
-241.309274418
-241.443520804
-48296234.1651
-43873261.1398
-96.1941335725
-96.3594759756
-233248.408666
-232967.820029
-25.9000573852
-25.8063310826
-115.076508955
-114.896415286
-41353940.9524
-60768778.9013
-55673645.1913
-52106952.6363
-21.4087846595
-21.4580442656
-48986822.6974
2525.72434122
2528.98902878
-44887654.1766
-50137927.9064
-13863.8562895
-13871.6963478
-21729.785103
-21722.9224082
-93.8337545826
-93.6462975356
-62382465.913
-49178728.532
-46883638.8236
-654.910315703
-653.664506953
-32135100.9315
-48465483.4389
-45499586.8109
-59187434.7304
-72927531.1619
-37983360.3273
-53140039.0331
-43528510.9861
-48415102.1186
-55749853.7533
-121512.448294
-121693.082696
-220888.290177
-436009.469992
-30.2025699976
-30.1819040345
-41739713.2093
-6538864.90826
-54626283.9727
-28.1372650381
-28.1376245972
-51454442.6027
-36814672.4709
-50211394.5124
-48677065.58
-58355473.3955
-53791577.7936
-41768078.1222
-48102842.517
-56114690.1793
-29272383.1833
-59496203.5224
-55619416.8535
-47484567.795
-645.868535093
-647.701061021
-27.0751563833
-27.1246905102
-3681137.20981
-512387.047663
-433126.994179
-49617385.4175
-1571.64251824
-1566.48934764
-59938414.1467
-52342774.0102
697903.698598
-43088284.7376
-48622599.3498
-637.990874457
-636.012207378
-57521441.4502
-320.54878121