/*--------------------------------*- C++ -*----------------------------------*\
| =========                 |                                                 |
| \\      /  F ield         | OpenFOAM: The Open Source CFD Toolbox           |
|  \\    /   O peration     | Version:  5.0                                   |
|   \\  /    A nd           | Web:      www.OpenFOAM.org                      |
|    \\/     M anipulation  |                                                 |
\*---------------------------------------------------------------------------*/
FoamFile
{
    version     2.0;
    format      ascii;
    class       volScalarField;
    location    "1000";
    object      T;
}
// * * * * * * * * * * * * * * * * * * * * * * * * * * * * * * * * * * * * * //

dimensions      [0 0 0 1 0 0 0];

internalField   nonuniform List<scalar> 
5796
(
-0.355590731484
-4.08754566774
4.08749624707
4.09498886463
-4.09501700734
3.99746419113
-3.99743146736
0.586188288405
1.35202786524
0.632914728771
0.254854218099
0.0254179236593
-0.159168575558
-0.516252241627
4.08273634788
-4.08279124555
0.141614742723
2.74225007147
4.10348019336
-4.10348080585
4.10780861149
-4.10780726834
-0.275633284333
3.96262886631
-3.96239282398
-3.24629566544
-0.907550371443
3.81406101466
-3.80582320449
-3.56699961268
-4.06076782189
4.06070275137
4.09880371841
-4.09881914785
4.10840798099
-4.10840799088
4.08441609805
-4.08447075664
1.27396264531
-2.93812448555
4.10578712992
-4.10578469435
0.728193609806
-2.57369975065
-0.0349133578303
0.00550856932111
3.56127996819
0.327534136814
4.10893319934
-4.1089341243
3.98161565507
-3.9815106838
4.01297941311
-4.01299267602
4.0905604603
-4.09060321362
4.05334291486
-4.05340643118
0.506305258659
-3.70946569638
3.76919868581
1.09174578144
-3.46645152283
1.55529983365
3.09818501402
-2.38837698202
4.10152260404
-4.10152933727
-0.610827239172
3.63718669957
1.72849111585
4.10812517144
-4.1081244662
4.10703662772
-4.1070347065
-3.10170205331
2.5553000476
3.24692252591
4.07212555782
-4.07218656056
-3.76175602776
-0.433315659522
4.0667607468
-4.06682413167
3.87751212493
-3.8755711595
4.10430935647
-4.10430805301
4.10867110309
-4.10867172278
3.69872408747
4.10255962874
-4.10256310601
4.1098179079
-4.10981816811
4.04492777025
-4.044985497
3.90486349548
-3.90375930398
-1.04887850958
0.197361219627
-1.72134339885
2.15973068108
-1.95683787463
0.0894887198023
2.32585295609
-1.54225779934
1.91440453551
4.1074327458
-4.10743105249
0.867315862802
4.10921229805
-4.10921322352
4.09702340904
-4.0970447714
3.37516101057
-0.215460767641
-0.104545049243
3.94043447317
-3.93995986698
4.10520835155
-4.10520598289
0.401189791516
-2.75757936145
-1.3815656
-2.13618710791
-0.788975201056
4.07694240043
-4.07700091729
4.09290022678
-4.09293571227
4.02840837998
-4.02844806067
4.10646023228
-4.10645811632
-1.19099515033
-3.64500404186
2.92858120174
4.10955661381
-4.10955722527
0.974916873136
-0.694996679465
-3.36756049579
3.48022791418
4.10030157831
-4.10031238639
3.84792473607
-3.84432462111
4.0365244516
-4.0365737395
3.81035347451
-3.809623218
-2.81086151594
-3.09598829657
-4.10028261758
4.10027440428
-1.12078628288
3.82622082829
-1.06659786953
-2.76259205293
1.76584232325
-4.01525288528
4.01523665923
3.90523817114
-3.90436715355
1.28960270097
1.80590126202
-3.45750269834
0.0714006895044
2.19349563183
-0.334890863148
-0.812617398455
0.0775444100074
0.0717474314477
-0.496066615705
-4.10095021362
4.10094422547
-0.83617968024
0.662684960262
-0.0204454374121
-0.32100798672
-0.435121540095
1.31504616619
-0.0459594047843
3.57856763508
0.384643613067
-0.0480721672507
-4.01729750657
4.01726956626
4.1088357925
-4.10883672185
0.685493991539
-0.352062104542
-3.8191670015
-0.937137780785
-0.509037020785
-0.463770478732
2.56894055799
-4.10647086437
4.10647366548
0.267757000428
2.38336169925
0.672531592061
0.0282923049865
-3.98852609851
3.98843055321
-3.60881918931
-0.0269675522327
-4.10600436259
4.10600747113
-4.05654489484
4.05649625584
0.459940475996
4.10697442095
-4.10697232202
-0.339551933547
-0.244550230681
0.0931000789205
-3.88990925046
3.88748942907
-0.0199274498264
-3.72647367689
1.31890432805
0.571123833361
0.342833883468
-3.15035595913
4.09774135208
-4.09776021996
-2.20490153883
4.10177576381
-4.10178120862
3.40231112867
3.42325103929
0.429399099918
-0.644209931113
-0.230373908763
-4.05011019641
4.05005885538
0.267079582814
0.0185310613592
-0.115920388112
2.71006633719
-0.291236828403
0.114615681088
3.79093984384
-2.91712523105
-3.85527543648
0.473080991547
2.99827176975
-4.10497486723
4.10497688396
2.98727467788
-4.10460546203
4.10460743382
-4.0598304811
4.05978007495
4.0847715775
-4.08482010502
-0.571348824701
-0.540738498891
0.551768556192
-3.39840018365
-3.30354953164
0.458373083258
-3.85143770444
3.5357350682
0.199128060515
0.785415396538
0.239958814749
3.5254929887
-3.16493649802
-0.239326443125
3.39591529643
-2.55260165085
4.10908969409
-4.10909067729
4.10907531781
-4.10907632798
0.408689197409
4.10968124248
-4.10968190338
-0.0100459127599
0.0209380212044
0.244122335145
0.0120853849226
3.69134059908
-3.75664669693
-3.57351567009
1.28225651668
3.87618943087
-3.87481373089
-1.63216743095
3.72171691461
-0.221049583276
0.839840607701
2.36356508082
3.91747821969
-3.91684673523
-0.183636033855
-4.09165902396
4.09162589644
0.196068018932
-0.529022515415
0.501724960112
-4.0929611944
4.09293077393
0.068485209921
3.13348018862
-4.06533004404
4.06527793917
0.26706477229
-1.80001455186
4.10942361592
-4.10942482037
-0.397863580562
0.225393879948
0.473598469077
-3.96177236266
3.96164832407
0.669895525483
0.654647511286
4.09652108838
-4.09654163197
-4.09652699186
4.09650643139
0.28388472259
-3.80743131082
-4.10792048473
4.10792115625
-0.999733334179
-0.130710903816
-3.00012541977
0.0454724750694
0.414185307045
-0.636738096157
-3.88643077502
3.88694866356
4.10932018875
-4.10932169347
0.769490848043
1.26579251707
-4.04030048622
4.04024019446
-0.0669050793804
0.387559041945
-0.182591525406
-0.576053175522
-4.05115948134
4.05110939462
0.112564472541
0.500551468858
3.80702060747
3.22748717942
-0.761164880475
1.2756374913
-0.0297645004591
3.19910248929
-0.0359089887095
0.0321812985102
-4.10856144685
4.1085602619
1.69437262669
0.129338852783
-4.08371600812
4.08366831673
-3.94544293916
3.94471165527
-0.230533834339
4.09802530218
-4.09804340086
0.0208813304147
1.33115826467
-0.0282515851578
0.123390885061
-4.10282235176
4.10282130184
4.10935667106
-4.10935816146
0.0108711781226
-0.22197678856
-0.0672342952761
2.65506738254
-4.09983318371
4.09982352926
-0.0566458338496
-0.0777791257496
-4.00494688423
4.00492969262
4.10710034932
-4.10709847704
3.59360369154
0.673989759158
-0.265480412098
-1.20617049931
1.43579037858
-0.145610161763
4.1087965676
-4.10879797141
-1.25671234605
4.10877198187
-4.10877295623
0.455172628561
2.90905503134
-0.0735510628152
-4.0872307709
4.08718643456
-4.10875478225
4.10875343609
0.443122885136
-0.492631052422
-0.0105167659206
1.2628843708
-0.537151943371
-4.10703936314
4.10704210471
0.70732395287
4.10186647479
-4.10187141558
0.155435780475
0.0543780512205
-0.19192376592
-0.674606155807
-0.304918420097
-4.00246844487
4.00244630535
-3.50840054235
0.562569504149
-0.397709900218
-2.09748334287
-3.39074822944
0.0635079015609
0.322012482365
-0.349283861441
0.0447029710674
-0.571859298157
-1.715036962
-0.82954790408
-0.209542245051
4.10961973517
-4.10962051119
-4.09755868962
4.0975411004
1.7725934085
2.28968459441
1.43414767858
-0.428619143217
0.0995278498698
-3.2173094373
-0.0314702933611
-0.755659887975
-3.90140439235
3.89799541323
-1.21455128135
1.44882450377
-0.97090758507
-4.06624720269
4.06619455071
-4.10987029922
4.10987000641
0.480958277648
-2.83869108462
4.10763667108
-4.10763546136
0.773147361532
0.515725463386
0.273194103775
-0.270061255718
-0.281873535495
0.335071766408
-0.237852291914
-3.32619767683
-0.907069512139
-0.0299805974987
0.514706459589
0.272229536895
-4.08120460145
4.08114966388
0.0137761619688
-4.05933306895
4.05927499724
3.256191712
-4.10256079589
4.1025587113
4.09704308587
-4.09706200425
-1.90885725077
-0.0221487179761
3.18812122149
-3.89152478102
3.89259859842
0.264598292097
-4.10857176068
4.10857061373
-0.0291778468314
3.04682959248
-0.723663402448
0.117549480002
-0.259922650004
0.416222285863
0.0521208266857
-4.04283922122
4.04278252751
-0.569819825835
-4.06309648596
4.06304371402
-0.0326689074122
0.0299186543077
-0.988989032091
3.79410615795
-0.0473482159848
-0.568375871865
4.09703451649
-4.09705575781
-4.03402699861
4.03397563698
0.474168279405
0.124158868718
0.872273645133
-4.04341082127
4.04335077782
1.16861960892
-0.115538224923
-3.97424790719
3.97436340996
4.10935599294
-4.10935741933
0.274415470376
3.32719316454
-1.48768509582
-2.46538511498
4.10897980709
-4.1089808095
-3.44936011795
-2.61405771864
-4.09813152233
4.09811587655
0.354532150397
4.09910708933
-4.09912179612
0.385524482098
0.14686547743
2.67417483284
-4.10220228649
4.10219968958
3.53278377866
3.32875467135
0.310045097741
-0.0850475594812
0.296539700559
1.33562250393
4.09684183508
-4.09686178927
-0.659349496381
0.0284689780543
0.42351520558
-1.03873606452
3.86428670123
3.83120363251
2.74204870483
3.3718525954
2.63849130671
3.56507436073
-0.11529920261
0.812258326511
3.37962555384
3.32842156019
0.609396357999
-4.10858675416
4.10858552616
3.62290312968
-4.10318594414
4.10318538528
-3.45761517145
0.0763825675724
0.0729811304068
-4.10836588853
4.10836509956
-0.412707132656
-0.0733431187351
-2.31880176272
0.173904756808
0.499884670637
-0.575182331796
0.00280924304456
-0.0678857189871
0.0495199952622
4.10217362324
-4.10217785337
0.0425112974041
0.115841579148
0.226868717216
-3.95738166017
3.95745788296
-0.0624179961474
-0.619125873297
0.193999398909
-0.205106189811
0.350661149893
-0.0549466802215
0.224532377737
-4.10776072747
4.10776186835
0.63850002753
-0.546135809366
0.124643864422
0.231360241743
0.126038533596
-2.48041695641
0.256332890393
-4.10819419536
4.10819405065
0.431257686017
-1.18236825517
0.0314857460995
4.10894677247
-4.10894833632
-4.10673211983
4.10673483933
-4.06961390677
4.0695608739
0.738897697915
0.3242075407
-0.0589109852553
-4.09498207158
4.09495656401
-1.73664974015
3.84972282155
1.46375943197
1.19019991481
4.10642259607
-4.10641990751
0.873585934495
0.127199197195
-0.478304296228
-0.453820643771
0.920917696098
-0.451660279265
3.67471388783
-3.95160455415
3.95071343093
-4.07863895227
4.07858174723
-4.09719525429
4.0971764463
0.0505694329768
-2.86057860924
2.02136959338
-4.10197804661
4.10197472851
0.0485519167857
0.0413562128418
4.10904571835
-4.10904737283
-1.64517744941
-0.348690309099
-0.447825111276
-1.02396597397
0.0533131573653
-0.267313831444
3.11353840681
-2.57844811937
-0.223049306211
0.0375966202787
-0.505693198839
-4.03880403995
4.03874302946
-4.07086659345
4.07080810218
-0.0375999394507
0.261911163117
0.0368511947554
0.0210803650185
-0.0336649946047
-3.86918462473
0.196550129745
3.14114840262
-3.82926427198
-0.312965469411
-4.10282460616
4.10282321123
-0.111488342265
-0.218596336586
1.63316252358
-0.313387983475
0.14389332961
0.0161373693837
-4.08415748564
4.08411135597
-0.88747033674
0.290441064026
-0.168933232504
0.871793080012
-1.5691211883
0.732978031039
-4.07592081714
4.07586575108
4.10931386964
-4.10931525218
0.411657411837
3.36539828589
0.5621896621
-1.10584310424
-4.04179142925
4.04173049984
0.341797484461
0.499370722747
0.335788604562
-4.02845394166
4.02841016365
-3.52655322419
-4.10993619173
4.1099360463
-2.93542232972
3.00907367099
0.0492787167765
-1.75781131237
4.10742046791
-4.10741896478
0.17335796473
3.51540715013
-0.0270308716211
-0.619733017071
-2.26401918665
-4.07840819068
4.07835709887
0.0547984537363
0.0622945672707
-2.97748233021
4.10660530058
-4.10660311493
4.10772848653
-4.10772729142
3.6110732055
-0.389128487313
0.638249616023
0.0517494457718
-3.08676742278
4.10920421906
-4.10920516787
0.303775018073
2.86228133282
-1.02573833644
-0.254623544852
-1.2674765754
0.427130408915
3.794916927
0.482767001898
0.296012378388
-0.458321889902
3.30596164493
-1.45735119979
0.439826766269
-3.23117488944
-4.06421398098
4.06415073124
-0.262859724341
-1.06078348283
-0.164794910086
4.10902914423
-4.10903076576
-1.61040815427
-0.079692274963
-3.70492135262
-0.171351409549
-0.253831854252
1.80173615775
3.55360313056
0.29080669288
-1.69837465056
-3.37037811614
0.0459794243818
-4.10492377056
4.10492630542
-3.60153321324
0.132114240084
-2.78458930487
-0.186507651415
0.145717095986
3.57535520849
4.03938356699
-4.03943655584
0.537173827227
-3.21406997579
2.37432623684
0.117602980566
0.194280728529
0.50379728091
-0.469900377286
3.15131275355
0.130193613286
-0.239598140754
-4.1085636829
4.10856256576
-0.212626699546
0.954400669365
-1.07902883149
-4.0783923358
4.07834053413
0.804956084216
3.57255007733
0.0498723265822
2.99675373874
2.96989515047
-1.21467280304
-3.33895379615
3.2317477992
-4.10829815289
4.10829769135
-3.50132691327
-0.247404225454
4.09370553593
-4.09373746541
-0.255609909204
0.252074209844
0.0633967936739
0.0384695703962
-4.08543097115
4.08538680702
0.0828703747786
-0.0535600914271
3.84985012765
0.25511074961
-0.52776387964
-3.814149332
-4.04781935853
4.04775775
4.10686986447
-4.10686787549
-1.56696402908
-0.495253864563
-0.634916433815
-0.050426988156
0.551491322803
-0.355390172053
-0.766777023291
-0.0801027948659
0.177444970351
-3.9759515915
3.97579808233
0.824087231614
-4.10800701619
4.10800740613
-0.333979972786
-0.0406797075111
-4.10851043242
4.10850945097
0.288829022205
-3.01784859106
0.0508072091777
-3.25648363665
0.185518883337
-0.228810944585
4.10896095208
-4.10896261439
1.10919468523
-0.23057626012
0.985218645041
3.44255882238
-0.428971872482
0.44895085739
4.10886867364
-4.10887026489
-0.428749403423
0.492984752103
0.13518665705
-4.10280460864
4.10280369285
1.33898957245
0.0219837867978
0.906507323404
0.60385914812
-1.23812435733
3.59576972264
-0.12589291915
-3.63718107357
1.47500876945
-0.177820263946
0.124521237593
4.09248928178
-4.09252483133
-0.0136757014603
0.559935520345
-0.291958964872
-4.06086510323
4.06080565719
-1.88327421401
0.80448692344
0.0791302946161
-0.958566306778
-3.7318738879
3.60017112493
-4.10850987604
4.10850888323
0.895095898368
-0.796847070886
4.10868107568
-4.10868244699
-0.654416303255
-0.766838257267
-0.060595257635
0.181956813155
-0.662616539305
0.103160382342
0.90215021722
-2.62344311009
-3.29816723676
-0.519847636827
-4.10617248452
4.10617592697
-0.812756677674
1.52548383001
4.10432267302
-4.10432104453
4.04467157532
-4.0447298766
-0.382731501854
-0.0781850008383
-0.318971149276
-2.29980287759
4.09987032865
-4.09988258417
-0.376445669688
-0.022560251421
0.087868263868
-3.77824082666
-4.02129298026
4.02124585962
-0.0431368041151
0.908423780673
-1.56251447875
3.77610538857
0.0896778455029
-0.217336041343
2.41423853141
-0.446942748369
0.389908028015
0.168395543748
0.195686640785
-0.275001978606
0.19085520961
-0.363399361572
-0.527276238843
-0.0408570651474
-0.83219425617
-0.419034436229
-4.02325988765
4.02320562287
2.7469303436
-0.286682116289
-3.94858750301
3.9484113413
0.0722306062263
0.0132078980331
-0.76619977571
0.696423009002
-1.50839944225
-0.892851735748
-1.60669805052
-0.146377543235
-0.465630457302
-4.10858217869
4.10858107306
-0.829718471915
2.42794863882
-3.26285822253
0.0268382619775
-0.075716992966
0.630026114878
2.47387492547
0.174297597681
4.10867526904
-4.1086766139
0.763764594234
-0.158487671682
-4.09175019394
4.09171745066
3.35796730746
0.413312238329
-4.0436194312
4.04356999123
-0.191210361287
-0.477951206085
-0.0055124883548
1.80052099737
0.305757429506
3.89593275112
-3.89511805395
0.0953293090216
-0.0258852575488
4.09956629242
-4.09957782428
0.359734433562
-3.93429939246
3.93460306118
3.69819095114
-3.99834934617
3.99826700315
-0.108207512412
0.104496915328
-0.141409093318
-0.67908714221
0.107764649709
-1.05591809599
4.0970413734
-4.09706259498
0.459794039656
-4.1061312183
4.10613425175
0.155017752832
0.947320622093
3.81627977479
-0.0656603446854
-4.10717571718
4.10717825987
4.07167842506
-4.07173889973
-4.10720102899
4.10720342237
0.406654476285
-0.0726125540759
1.23274698052
-4.07207748214
4.07202507755
3.82351298432
-3.8209046805
3.26965955677
-1.55235635952
-4.10484520525
4.10484735537
-0.0996624198474
4.1088987223
-4.10889976723
-4.10795160524
4.10795193769
-1.62851773707
3.65445767957
-4.06320996786
4.06315639974
3.90680542458
-3.90650783367
0.105230421879
0.145193921801
0.209937942608
-4.03079416384
4.03073976619
-4.01992869745
4.01991358153
-1.54506462184
-0.531658657363
1.13189588952
-0.0611087079659
-3.95340839428
3.95332213412
-4.05179965868
4.05175251827
-0.457927590745
0.737109757088
-0.343602751519
0.83493306799
-4.0994696036
4.09945714961
3.8271592127
-0.731734842143
3.78929464149
-4.10530841051
4.10531068277
0.183926249258
-0.106446046666
4.09211606292
-4.09215217158
4.10912532377
-4.10912685942
4.10859426635
-4.10859532584
-0.498997790169
4.09928027172
-4.09929254158
-0.757447167562
-4.05741128741
4.05734892229
0.578766045952
2.11182026027
-0.229455856996
0.402188626407
1.73716010293
-3.15066876849
0.492355975134
-4.08719199177
4.08715008663
-4.10386645243
4.10386712443
-0.376270880729
-2.70365342803
-4.08519814731
4.08515257573
-4.07887569592
4.07882253822
0.308568665999
-0.0944352518868
-0.572484790574
3.55108191245
-3.32506222703
0.538557940544
-0.831362173207
-0.0435986762672
-4.04577093481
4.04573028699
0.0335003600172
0.013412586675
-4.04760688557
4.04756189113
1.82082599773
-0.010713512412
4.10847415457
-4.10847501389
-0.118502382473
3.86080558078
-0.239984235531
-4.06887998298
4.06882820929
-1.05887087057
-4.10706828069
4.10707055096
0.195582637717
3.68452437786
4.1065935333
-4.10659104495
-0.278280946068
-0.848563294147
-0.721955927788
-3.98605220139
3.9859804753
0.879440482478
-4.08076084443
4.08070728993
0.29183391671
4.10877751254
-4.1087788481
0.326719687445
-3.98409521265
3.98397917767
3.86753797562
-3.86490806351
-0.0968423542545
0.193650792115
-3.57477851953
0.30830726359
0.105828614099
-1.95266271334
-0.325189933587
-0.326449541294
-3.25760766543
-4.10855571517
4.10855462754
-0.180155321494
-2.16045015854
-3.22429405001
0.328522909
0.182222552849
-1.78975618893
0.363199260482
0.966869169277
-0.451462922788
0.139463690612
-0.0768520575083
-0.587507936512
-0.135956357678
-0.556825517093
0.571300762149
-0.493237234821
1.77548572851
4.08280431946
-4.08285821419
0.906757479947
-4.02561955745
4.02557626082
-0.926691967753
-3.96434676543
3.96424524186
-3.47963447496
-4.10849773469
4.10849668864
0.0571690962776
-4.09887599045
4.09886267622
-3.54534009343
0.981897552351
-4.10714267796
4.10714510222
0.0853397682041
-3.65375926872
0.957894117267
-0.265759902447
0.512620668063
3.63776883579
-3.58920625099
-0.134947686477
-0.225199706884
-3.22343165721
-3.84996419615
3.85543308856
-0.128308876765
3.24967407336
0.318276084236
-3.96776671833
3.96796823296
-4.045053688
4.0449989901
1.03037783808
0.0194814706182
-4.09593639395
4.09591356862
4.10948062673
-4.10948171495
-0.818243561724
3.29687578895
-0.574133180763
4.10882808781
-4.10882961133
-0.469632418918
0.330276044228
-0.444116754452
0.430571658014
-0.538868180752
0.0142404094436
0.244278785316
0.0736668424507
0.587849976677
-0.236751045175
4.10895591417
-4.10895738345
-4.05178535829
4.05172964002
4.10310733737
-4.10310875984
1.50620440105
0.0492961754698
-0.227411355856
0.0366387278784
-0.209402597834
2.76656956647
3.53035588009
0.187550962682
0.101181039885
4.10904184506
-4.10904294273
-1.33526269346
-2.27970779115
0.445531809457
3.32268459056
-4.08370644767
4.08365951736
0.921231838546
0.30517531996
-3.83846434083
3.8347098203
0.164315881948
-3.84474430928
3.84310027062
-3.72153651692
3.86286008351
-3.86145986774
0.971725847483
-0.396732275125
0.32557193278
0.303026544126
-0.331868561097
4.09805471628
-4.09807271427
0.697845925279
0.488682385684
0.170779652937
3.93820284117
-3.9377599669
-3.74734530212
1.53286209424
0.58001541044
-4.09707465654
4.09705576236
-4.08798169318
4.08794089216
-1.17068918274
-0.376794048235
2.94926449802
0.178380227944
0.205182944927
-3.82342266785
0.659398944186
-0.506446526293
0.398212751907
0.0585852375551
-0.543029263395
-0.0918570537476
-4.01009312107
4.01007032962
-0.2493391155
1.6129299448
-4.08014875961
4.08009898888
-3.53996274255
3.05374152974
-4.10802509397
4.10802533558
0.231437606824
-4.10557297805
4.10557618425
-0.189322225581
-0.339080980249
4.10805158438
-4.10805084568
-4.10851415441
4.10851316345
-0.239630895059
0.0841161279431
-3.16436372042
0.309436111797
0.422497083643
0.934726022044
4.10918149636
-4.10918250442
0.0262257139074
-0.278492689221
2.61013211899
3.33310458775
-4.10770200717
4.10770334834
-2.08188470368
0.234788658359
-0.412532214605
1.04623704287
0.117364027639
2.14896036376
-0.40549554711
3.75184236852
-1.25507980756
2.14707606092
-3.86794385208
-0.0949947071354
2.62543105058
1.62227375289
0.774239963626
-2.20226013828
3.33048364752
3.02898032775
-1.60839014349
-0.648879342526
-0.281877963686
-0.438669586406
-0.225275444705
3.74028268084
3.24087072051
-2.2820113755
-4.07951131711
4.07945564348
0.609606467666
0.0664421451965
0.973965642686
-4.08783386862
4.08779280179
-0.564282075131
0.433522604913
2.35322708245
0.0572637428139
-4.03956416506
4.03950930354
-0.419447231022
3.41610253744
-0.813682266151
-3.45277902434
4.10905520195
-4.10905674463
2.1350208644
-0.769501064503
-3.63222327481
0.294216282828
-3.406383071
-1.84640749808
-0.417165885311
0.133663386163
-0.636740395699
-0.0261938795888
-4.083982761
4.0839366733
-3.89051164403
3.88945523899
-0.456241651278
4.10797414557
-4.10797333608
4.10925322968
-4.10925414033
3.58256836924
-0.504424079475
2.56618583832
-0.44039353418
-3.73263423488
-0.260627561717
-0.619588505427
3.78464731228
-0.302169915025
-0.531609347524
0.125675167516
0.75220682028
0.300807132031
-3.62796710472
0.154342114567
-0.115344309875
0.103673559473
-4.04663803106
4.0465921702
1.29636492243
0.00527955359956
-0.54754434303
-0.0014517903448
0.0187465976781
-3.07753563678
0.396861579851
-4.08385415637
4.08380817884
-4.06085137008
4.0608001645
0.180252434741
-0.0466238143851
3.65672742305
0.341235187763
3.65652543133
4.09697480428
-4.09699576677
-0.610727932312
-0.337730531437
-3.9125917108
3.91357599567
-3.54709553017
0.0347434586565
3.59764107588
-0.33634466887
4.10834607514
-4.10834613447
3.2412047316
-3.96637122728
3.96639922001
-0.837690006664
-0.640342323887
4.09484725186
-4.09487548471
-4.06813971705
4.06808210924
-0.430144362863
-1.8273195776
0.149970706911
1.6749062315
0.0616005325964
-0.783441784409
3.6825167289
0.249236122492
0.0910522381363
-1.77791356819
-3.17594272134
-1.7178329636
-4.06683268537
4.06677811386
-4.02218684631
4.0221234102
-2.75023010359
-4.10863214323
4.10863094007
0.474717772807
-2.86923597676
-0.384814680646
-0.0705035845135
-0.270865338262
-0.751995308036
0.592673752967
0.527401394514
-1.17949034774
-4.10577904464
4.10578144376
-0.192847787794
3.12220834578
0.207519328159
-3.72610973139
-0.357655298506
-1.81770929968
-4.09106529412
4.09103123612
-3.92369791975
3.92418135501
0.00940045570935
4.07020171798
-4.0702634185
0.58321030104
3.62999005143
-4.05340876468
4.05335434411
-0.632297288032
3.64719172023
-0.0605124381402
-0.0919648208636
-4.02725275943
4.02722866988
-3.66818957954
-4.10943310785
4.10943204786
0.216978617406
0.127710988226
3.60568185839
-4.02309393843
4.0230827494
-0.0128009831974
-0.907422654887
0.239197151875
0.113233665973
-0.108540764806
-0.816660350775
3.4621250394
0.307417732412
-0.352321194021
-3.56242510466
-0.534464179711
3.6171564472
0.197258657793
-4.10954545427
4.1095448816
-0.932237852246
-0.14580533212
0.00650931517035
-0.460529543482
-4.04180083728
4.0417645031
-3.14077113319
-4.09442805104
4.09440126739
1.04471281924
0.0827090874651
1.27954167618
2.66432143985
1.27908655272
3.39029439112
1.79079629496
2.93300456063
-3.05148966871
-3.56992686093
0.0830357228306
4.10881270378
-4.10881407657
0.11667101256
0.260879285027
4.10912039503
-4.10912197707
0.10110813806
-4.08899430301
4.08894844966
-0.45227563497
-4.07929229411
4.07923655749
0.444219184953
-3.42794750344
3.95051863248
-3.95020346861
-0.041247301767
0.100339335995
-0.103558042512
-1.12151879105
-3.87160910708
3.87388926609
0.733339484148
0.12314211358
-0.307332442044
4.10352431802
-4.10352445764
0.0101467340335
-0.529778982285
3.68517482174
0.01392247743
0.575633407119
-1.19166159232
0.504160388512
-0.142852043189
3.80536447821
-3.80253912875
-4.10374755603
4.10374809936
-1.85568502618
0.0769146445277
-3.31925644173
-3.75525173559
-0.147580682078
-0.445119634195
-0.367603871705
0.0780241288227
0.396778229865
0.0452021051707
-2.85130651357
0.399329348129
-0.00822854065246
-3.97871596534
3.97879153208
-4.0739156468
4.07385827099
-4.10753844639
4.10754022235
-4.01587729448
4.01581117397
-1.14520740838
-0.376970629707
-0.527272841738
-0.883971011096
-0.842781941865
3.55734806486
-0.0136133465159
-0.0693942885904
4.09638994879
-4.09641343025
-0.0751848210761
-4.07629118725
4.07623249486
-0.10200961302
0.392124587993
0.0398457762957
-0.654128765145
1.01213876278
-0.710236121942
-0.179392774285
-4.1071420754
4.10714414327
0.988164561128
-0.728477405949
-4.10586550814
4.10586890269
0.976781828234
-0.923440809906
1.03055192149
-2.83058842523
4.10459761604
-4.10459555314
-4.10368161978
4.10368197699
0.766650246404
-0.218535583598
-0.0357695900205
4.10904935536
-4.10905077953
-0.426615932734
-0.418201876635
-0.189603271315
-0.200743308351
0.393541393491
-2.03040748928
0.583327405273
0.0307640375222
0.260835004905
-1.79820755093
-0.394668115384
-4.10829231035
4.1082918238
-3.53887530888
-3.7460011445
-0.367361378253
-3.76573676666
3.81185739342
-4.10984850922
4.10984819382
3.48934530251
-0.595877632517
-4.10970829124
4.10970768153
-0.146176873639
-4.04139405919
4.04133864443
1.91398878855
0.620770430961
4.10588662028
-4.1058842236
-4.10873607661
4.10873479526
-1.19419048484
-0.101382745888
-0.52054539037
-1.94798895942
-3.62829208955
4.10886157747
-4.10886310416
-1.40571468155
0.50378968466
0.342905312759
0.334097806161
-3.71739782361
-0.600613548659
-0.295705330624
0.693455285609
0.459890012363
0.113776881888
-0.391615842471
2.93879461584
3.90260549583
-3.90157658037
2.1563094898
0.361451417036
0.0381830708875
-2.13986650755
2.69250952851
-0.899442186934
-0.573534853784
0.249920182384
-0.95714614506
-4.08560829009
4.08556395231
-0.190457830885
-4.10859668249
4.10859553124
2.14730931317
0.521110178803
-2.23933852422
0.597962286598
-0.850540083847
-0.393891424539
-0.21070124145
0.555029983223
-0.00885161919812
-4.10842921272
4.10842844766
1.6580919109
0.373953555434
0.312565441183
3.38482544726
-4.10966364366
4.10966291769
0.32983364946
1.5482104295
-0.774091623488
0.484218681563
-4.10248215441
4.10247934528
0.156377190027
-0.00909630775693
-3.99233347237
3.99228283958
-0.152352159283
1.48077372122
0.47302478085
-3.84851612732
3.85440637864
0.585306886941
0.0948638540207
0.0888539645688
3.67734448102
0.064125836278
-0.211802536351
2.76946465246
-3.35215501305
0.943675041388
-2.19920378012
0.203751676195
-0.130375723749
4.09988343966
-4.09989527829
0.767625914591
-0.172694387861
4.10851956246
-4.10851999672
-0.541833555153
-0.210413144992
-4.02417573512
4.02414028782
0.124938173902
0.779761691082
-3.53520639881
-4.10024969442
4.10023978803
2.51893512893
-1.80156983186
3.35390067508
4.1091501982
-4.10915187589
-4.07501302043
4.07495410644
-1.03312505337
-0.10243649345
0.483828522641
0.00710454306199
3.60646597785
0.0825263675071
-4.02919129406
4.02914871852
-4.10820450391
4.1082043851
3.76829087119
0.142432678702
-0.0883547671193
0.860216692704
0.578960235513
3.53208262563
3.55765287636
-4.10821183627
4.10821165989
0.806161874485
-0.0366301102348
0.357888373841
-0.410025026768
-3.97329377074
3.97322683911
-0.382884743009
0.864635549853
-4.1074221531
4.10742421724
-0.636723009879
-4.09287835792
4.09284738415
0.566061220824
-1.45347541796
-0.208437716148
4.10536531837
-4.10536283844
0.335957402925
4.09814518178
-4.0981608251
-0.38100562538
-0.0104005855754
0.143714160347
4.09780853917
-4.09782589539
-0.106735173762
-0.477731500613
-0.114999607999
-4.09848602098
4.09847154156
-4.03395092197
4.03389431901
0.587306331075
0.675138424855
3.91082580107
-3.9105309114
3.71612970802
0.175898344597
-4.01322596736
4.01318063268
4.08605667285
-4.08610739403
-0.09643220645
0.862622599673
-3.74900113298
0.048740603648
3.39796006511
0.312338635568
-0.483170555161
3.43469293331
-0.0352003346936
-1.85544588955
-2.77116724336
-4.10823444926
4.1082339301
-0.132467740232
-0.0634649695272
-4.05909959332
4.05903650043
0.607751517941
-0.208926737072
0.295129184203
-3.77456211645
0.361382679744
0.322288033579
-3.36128265237
-0.289015320792
-0.144708757413
0.966384616923
-0.157071690601
0.139636472414
-4.10411404701
4.1041153581
0.141311350181
0.296124763523
-4.06693181581
4.06687635323
4.10652052107
-4.10651837311
0.50281796515
0.212531912605
4.10776571798
-4.10776482804
-3.97359877279
3.97359498893
-4.10810927897
4.10810925611
-4.10740182012
4.10740310687
-2.19229042151
-0.486151251578
-0.115018204244
-0.0950616270722
-4.10966410522
4.10966328774
-0.193843838114
-4.06623755575
4.06618564243
-0.732655234344
0.557945640949
-4.07547097944
4.07541202973
-4.05672389491
4.05666297642
-4.10740349986
4.10740486071
0.0318803340811
-0.157349653906
0.894934961397
4.10386042838
-4.10385954867
2.24963425802
-1.55334873103
0.0852444724878
0.426301990205
-0.962039951843
-1.70925842664
0.741324397851
0.985743724896
-0.141961839855
0.612502159797
-3.99531473527
3.99522809761
-3.83656350279
3.83921633893
4.10923160876
-4.10923274048
-1.77352933732
-3.28494134174
-0.029149950155
4.10896057717
-4.1089621448
-0.909587848572
-2.17224031342
1.069368064
0.175366666333
-0.0815896197585
0.334504822085
0.470380588522
0.261096400944
0.589287441326
2.36730864013
-1.89069573297
-0.0244860999012
0.389913163954
-4.09992629277
4.09991629816
-4.10992137065
4.10992122611
3.548156784
-3.85358808754
3.85827468466
0.211647491441
4.09901959369
-4.09903459213
-0.478608940795
0.481007525999
-2.92119964042
0.0192647425393
0.560004730252
4.10287956173
-4.10288179633